Program Version,EnergyPlus, Version 9.6.0-f420c06a69, YMD=2022.07.05 15:14
1,5,Environment Title[],Latitude[deg],Longitude[deg],Time Zone[],Elevation[m]
2,8,Day of Simulation[],Month[],Day of Month[],DST Indicator[1=yes 0=no],Hour[],StartMinute[],EndMinute[],DayType
3,5,Cumulative Day of Simulation[],Month[],Day of Month[],DST Indicator[1=yes 0=no],DayType  ! When Daily Meters Requested
4,2,Cumulative Days of Simulation[],Month[]  ! When Monthly Meters Requested
5,1,Cumulative Days of Simulation[] ! When Run Period Meters Requested
6,1,Calendar Year of Simulation[] ! When Annual Meters Requested
135,1,Electricity:Facility [J] !Hourly
3420,1,ElectricityNet:Facility [J] !Hourly
3738,1,NaturalGas:Facility [J] !Hourly
End of Data Dictionary
1,RUNPERIOD 1,  35.04,-106.62,  -7.00,1619.00
2,1, 1, 1, 0, 1, 0.00,60.00,Holiday
135,46359074.93593144
3420,46359074.93593143
3738,6791184.0
2,1, 1, 1, 0, 2, 0.00,60.00,Holiday
135,46359235.70955593
3420,46359235.709555924
3738,6791184.0
2,1, 1, 1, 0, 3, 0.00,60.00,Holiday
135,46359235.70955593
3420,46359235.709555924
3738,6791184.0
2,1, 1, 1, 0, 4, 0.00,60.00,Holiday
135,46359235.70955593
3420,46359235.709555924
3738,6791184.0
2,1, 1, 1, 0, 5, 0.00,60.00,Holiday
135,46359235.70955593
3420,46359235.709555924
3738,6791184.0
2,1, 1, 1, 0, 6, 0.00,60.00,Holiday
135,46359235.70955593
3420,46359235.709555924
3738,6791184.0
2,1, 1, 1, 0, 7, 0.00,60.00,Holiday
135,66032185.73006148
3420,66032185.73006148
3738,6791184.0
2,1, 1, 1, 0, 8, 0.00,60.00,Holiday
135,50074623.774579875
3420,50074623.774579875
3738,6791184.0
2,1, 1, 1, 0, 9, 0.00,60.00,Holiday
135,46351708.9331394
3420,46351708.9331394
3738,6791184.0
2,1, 1, 1, 0,10, 0.00,60.00,Holiday
135,46288813.17904917
3420,46288813.179049164
3738,6791184.0
2,1, 1, 1, 0,11, 0.00,60.00,Holiday
135,50009342.363199614
3420,50009342.363199614
3738,6791184.0
2,1, 1, 1, 0,12, 0.00,60.00,Holiday
135,53617732.55272024
3420,53617732.55272024
3738,6791184.0
2,1, 1, 1, 0,13, 0.00,60.00,Holiday
135,53634290.22678877
3420,53634290.22678876
3738,6791184.0
2,1, 1, 1, 0,14, 0.00,60.00,Holiday
135,58165555.4574862
3420,58165555.45748622
3738,6791184.0
2,1, 1, 1, 0,15, 0.00,60.00,Holiday
135,62026144.28259239
3420,62026144.28259239
3738,6791184.0
2,1, 1, 1, 0,16, 0.00,60.00,Holiday
135,62605261.924326405
3420,62605261.924326405
3738,6791184.0
2,1, 1, 1, 0,17, 0.00,60.00,Holiday
135,50224406.74534619
3420,50224406.74534619
3738,6791184.0
2,1, 1, 1, 0,18, 0.00,60.00,Holiday
135,67534969.93162571
3420,67534969.93162571
3738,6791184.0
2,1, 1, 1, 0,19, 0.00,60.00,Holiday
135,57105773.81922845
3420,57105773.81922844
3738,6791184.0
2,1, 1, 1, 0,20, 0.00,60.00,Holiday
135,48904615.70955593
3420,48904615.70955593
3738,6791184.0
2,1, 1, 1, 0,21, 0.00,60.00,Holiday
135,48904615.70955593
3420,48904615.70955593
3738,6791184.0
2,1, 1, 1, 0,22, 0.00,60.00,Holiday
135,48904615.70955593
3420,48904615.70955593
3738,6791184.0
2,1, 1, 1, 0,23, 0.00,60.00,Holiday
135,48904615.70955593
3420,48904615.70955593
3738,6791184.0
2,1, 1, 1, 0,24, 0.00,60.00,Holiday
135,48904615.70955593
3420,48904615.70955593
3738,6791184.0
2,2, 1, 2, 0, 1, 0.00,60.00,Monday
135,57609860.1137362
3420,57609860.1137362
3738,6791184.0
2,2, 1, 2, 0, 2, 0.00,60.00,Monday
135,57609860.1137362
3420,57609860.1137362
3738,6791184.0
2,2, 1, 2, 0, 3, 0.00,60.00,Monday
135,57609860.1137362
3420,57609860.1137362
3738,6791184.0
2,2, 1, 2, 0, 4, 0.00,60.00,Monday
135,57609860.1137362
3420,57609860.1137362
3738,6791184.0
2,2, 1, 2, 0, 5, 0.00,60.00,Monday
135,57609860.1137362
3420,57609860.1137362
3738,6791184.0
2,2, 1, 2, 0, 6, 0.00,60.00,Monday
135,57609860.1137362
3420,57609860.1137362
3738,6791184.0
2,2, 1, 2, 0, 7, 0.00,60.00,Monday
135,137296304.18115827
3420,137296304.18115827
3738,6791184.0
2,2, 1, 2, 0, 8, 0.00,60.00,Monday
135,228091710.0508986
3420,228091710.0508986
3738,147577462.2909266
2,2, 1, 2, 0, 9, 0.00,60.00,Monday
135,310928566.17060184
3420,310928566.17060184
3738,92519461.25435951
2,2, 1, 2, 0,10, 0.00,60.00,Monday
135,270881865.80048376
3420,270881865.8004837
3738,64104549.62432517
2,2, 1, 2, 0,11, 0.00,60.00,Monday
135,266825978.4651965
3420,266825978.46519646
3738,26002213.802575894
2,2, 1, 2, 0,12, 0.00,60.00,Monday
135,286238561.40794075
3420,286238561.40794075
3738,20876803.489152778
2,2, 1, 2, 0,13, 0.00,60.00,Monday
135,288356518.2716734
3420,288356518.2716734
3738,31334359.881758783
2,2, 1, 2, 0,14, 0.00,60.00,Monday
135,302975525.7747885
3420,302975525.7747885
3738,26165959.05339483
2,2, 1, 2, 0,15, 0.00,60.00,Monday
135,294972021.31000483
3420,294972021.3100048
3738,16663111.546087924
2,2, 1, 2, 0,16, 0.00,60.00,Monday
135,299410344.29420304
3420,299410344.29420304
3738,19076358.658423744
2,2, 1, 2, 0,17, 0.00,60.00,Monday
135,298389053.9474881
3420,298389053.94748807
3738,20696594.044879485
2,2, 1, 2, 0,18, 0.00,60.00,Monday
135,237624719.45918894
3420,237624719.45918894
3738,24658594.589504886
2,2, 1, 2, 0,19, 0.00,60.00,Monday
135,131458533.53394982
3420,131458533.5339498
3738,57891981.091293484
2,2, 1, 2, 0,20, 0.00,60.00,Monday
135,116433380.00818448
3420,116433380.00818448
3738,72469446.82990465
2,2, 1, 2, 0,21, 0.00,60.00,Monday
135,107904137.86016025
3420,107904137.86016026
3738,84419336.25488532
2,2, 1, 2, 0,22, 0.00,60.00,Monday
135,105912372.76109348
3420,105912372.7610935
3738,86039928.28257765
2,2, 1, 2, 0,23, 0.00,60.00,Monday
135,77772390.65670998
3420,77772390.65670998
3738,6791184.0
2,2, 1, 2, 0,24, 0.00,60.00,Monday
135,72442274.24247962
3420,72442274.24247962
3738,6791184.0
2,3, 1, 3, 0, 1, 0.00,60.00,Tuesday
135,57996196.7332391
3420,57996196.7332391
3738,6791184.0
2,3, 1, 3, 0, 2, 0.00,60.00,Tuesday
135,57609860.1137362
3420,57609860.1137362
3738,6791184.0
2,3, 1, 3, 0, 3, 0.00,60.00,Tuesday
135,57609860.1137362
3420,57609860.1137362
3738,6791184.0
2,3, 1, 3, 0, 4, 0.00,60.00,Tuesday
135,57609860.1137362
3420,57609860.1137362
3738,6791184.0
2,3, 1, 3, 0, 5, 0.00,60.00,Tuesday
135,57609860.1137362
3420,57609860.1137362
3738,6791184.0
2,3, 1, 3, 0, 6, 0.00,60.00,Tuesday
135,57609860.1137362
3420,57609860.1137362
3738,6791184.0
2,3, 1, 3, 0, 7, 0.00,60.00,Tuesday
135,112102812.71491654
3420,112102812.71491656
3738,6791184.0
2,3, 1, 3, 0, 8, 0.00,60.00,Tuesday
135,192408370.01605332
3420,192408370.0160533
3738,131270974.34457883
2,3, 1, 3, 0, 9, 0.00,60.00,Tuesday
135,311377468.3005356
3420,311377468.30053556
3738,77011765.8614414
2,3, 1, 3, 0,10, 0.00,60.00,Tuesday
135,275991645.6933976
3420,275991645.6933976
3738,37032265.1894799
2,3, 1, 3, 0,11, 0.00,60.00,Tuesday
135,275027993.38438785
3420,275027993.38438785
3738,12356874.77290462
2,3, 1, 3, 0,12, 0.00,60.00,Tuesday
135,293027824.6580732
3420,293027824.6580732
3738,23129488.975600578
2,3, 1, 3, 0,13, 0.00,60.00,Tuesday
135,294632280.35879445
3420,294632280.3587944
3738,31312393.36103994
2,3, 1, 3, 0,14, 0.00,60.00,Tuesday
135,311631511.72635615
3420,311631511.72635615
3738,26179763.885574874
2,3, 1, 3, 0,15, 0.00,60.00,Tuesday
135,297469091.1916596
3420,297469091.1916596
3738,20133738.27406303
2,3, 1, 3, 0,16, 0.00,60.00,Tuesday
135,301048099.2336246
3420,301048099.2336245
3738,15641933.428970817
2,3, 1, 3, 0,17, 0.00,60.00,Tuesday
135,304381337.59458923
3420,304381337.5945892
3738,21131219.676558174
2,3, 1, 3, 0,18, 0.00,60.00,Tuesday
135,241555527.0717467
3420,241555527.07174665
3738,18150591.1484727
2,3, 1, 3, 0,19, 0.00,60.00,Tuesday
135,131866343.2953921
3420,131866343.2953921
3738,35254282.540325396
2,3, 1, 3, 0,20, 0.00,60.00,Tuesday
135,113569604.38930234
3420,113569604.38930234
3738,55618240.98964385
2,3, 1, 3, 0,21, 0.00,60.00,Tuesday
135,103004750.63109705
3420,103004750.63109705
3738,64520228.30643645
2,3, 1, 3, 0,22, 0.00,60.00,Tuesday
135,100314428.85157591
3420,100314428.85157594
3738,93974720.59014836
2,3, 1, 3, 0,23, 0.00,60.00,Tuesday
135,77772390.65670998
3420,77772390.65670998
3738,6791184.0
2,3, 1, 3, 0,24, 0.00,60.00,Tuesday
135,72442274.24247962
3420,72442274.24247962
3738,6791184.0
2,4, 1, 4, 0, 1, 0.00,60.00,Wednesday
135,57996196.7332391
3420,57996196.7332391
3738,6791184.0
2,4, 1, 4, 0, 2, 0.00,60.00,Wednesday
135,57609860.1137362
3420,57609860.1137362
3738,6791184.0
2,4, 1, 4, 0, 3, 0.00,60.00,Wednesday
135,57609860.1137362
3420,57609860.1137362
3738,6791184.0
2,4, 1, 4, 0, 4, 0.00,60.00,Wednesday
135,57609860.1137362
3420,57609860.1137362
3738,6791184.0
2,4, 1, 4, 0, 5, 0.00,60.00,Wednesday
135,57609860.1137362
3420,57609860.1137362
3738,6791184.0
2,4, 1, 4, 0, 6, 0.00,60.00,Wednesday
135,57609860.1137362
3420,57609860.1137362
3738,6791184.0
2,4, 1, 4, 0, 7, 0.00,60.00,Wednesday
135,107774072.52574906
3420,107774072.52574907
3738,6791184.0
2,4, 1, 4, 0, 8, 0.00,60.00,Wednesday
135,190977085.51973185
3420,190977085.51973185
3738,152549075.17350966
2,4, 1, 4, 0, 9, 0.00,60.00,Wednesday
135,309442795.73769474
3420,309442795.7376947
3738,90061261.93808414
2,4, 1, 4, 0,10, 0.00,60.00,Wednesday
135,270429451.7583626
3420,270429451.7583626
3738,61809308.47868821
2,4, 1, 4, 0,11, 0.00,60.00,Wednesday
135,264628704.1230281
3420,264628704.1230281
3738,42705920.408390485
2,4, 1, 4, 0,12, 0.00,60.00,Wednesday
135,278718611.7130605
3420,278718611.7130605
3738,27237330.092575423
2,4, 1, 4, 0,13, 0.00,60.00,Wednesday
135,284511525.7473638
3420,284511525.7473638
3738,31351205.050687008
2,4, 1, 4, 0,14, 0.00,60.00,Wednesday
135,289894129.4150424
3420,289894129.4150424
3738,26189702.813008703
2,4, 1, 4, 0,15, 0.00,60.00,Wednesday
135,275182970.10820526
3420,275182970.1082052
3738,20162358.474987995
2,4, 1, 4, 0,16, 0.00,60.00,Wednesday
135,274853282.9723808
3420,274853282.97238076
3738,15652705.375646915
2,4, 1, 4, 0,17, 0.00,60.00,Wednesday
135,294556686.5135559
3420,294556686.5135559
3738,25318578.899761163
2,4, 1, 4, 0,18, 0.00,60.00,Wednesday
135,251267316.60602063
3420,251267316.60602063
3738,20631977.949197866
2,4, 1, 4, 0,19, 0.00,60.00,Wednesday
135,131888589.07372302
3420,131888589.07372302
3738,37714540.541103825
2,4, 1, 4, 0,20, 0.00,60.00,Wednesday
135,113569604.38930234
3420,113569604.38930234
3738,52554108.24589509
2,4, 1, 4, 0,21, 0.00,60.00,Wednesday
135,102913361.90140839
3420,102913361.90140839
3738,65833880.561717674
2,4, 1, 4, 0,22, 0.00,60.00,Wednesday
135,99099294.84500085
3420,99099294.84500086
3738,77140171.07041092
2,4, 1, 4, 0,23, 0.00,60.00,Wednesday
135,77772390.65670998
3420,77772390.65670998
3738,6791184.0
2,4, 1, 4, 0,24, 0.00,60.00,Wednesday
135,72442274.24247962
3420,72442274.24247962
3738,6791184.0
2,5, 1, 5, 0, 1, 0.00,60.00,Thursday
135,57996196.7332391
3420,57996196.7332391
3738,6791184.0
2,5, 1, 5, 0, 2, 0.00,60.00,Thursday
135,57609860.1137362
3420,57609860.1137362
3738,6791184.0
2,5, 1, 5, 0, 3, 0.00,60.00,Thursday
135,57609860.1137362
3420,57609860.1137362
3738,6791184.0
2,5, 1, 5, 0, 4, 0.00,60.00,Thursday
135,57609860.1137362
3420,57609860.1137362
3738,6791184.0
2,5, 1, 5, 0, 5, 0.00,60.00,Thursday
135,57609860.1137362
3420,57609860.1137362
3738,6791184.0
2,5, 1, 5, 0, 6, 0.00,60.00,Thursday
135,57609860.1137362
3420,57609860.1137362
3738,6791184.0
2,5, 1, 5, 0, 7, 0.00,60.00,Thursday
135,100664134.13277073
3420,100664134.13277075
3738,6791184.0
2,5, 1, 5, 0, 8, 0.00,60.00,Thursday
135,179218138.09158877
3420,179218138.09158877
3738,123385563.81631427
2,5, 1, 5, 0, 9, 0.00,60.00,Thursday
135,310140494.9575479
3420,310140494.9575479
3738,66366961.95607806
2,5, 1, 5, 0,10, 0.00,60.00,Thursday
135,278302077.47215706
3420,278302077.47215706
3738,21145617.81198257
2,5, 1, 5, 0,11, 0.00,60.00,Thursday
135,277656547.2238385
3420,277656547.22383845
3738,11332705.54928314
2,5, 1, 5, 0,12, 0.00,60.00,Thursday
135,290287840.52319187
3420,290287840.5231918
3738,20890782.0365476
2,5, 1, 5, 0,13, 0.00,60.00,Thursday
135,290349019.8888911
3420,290349019.8888911
3738,31320858.562127728
2,5, 1, 5, 0,14, 0.00,60.00,Thursday
135,311941214.5494007
3420,311941214.54940075
3738,26189007.473221518
2,5, 1, 5, 0,15, 0.00,60.00,Thursday
135,305260067.94258845
3420,305260067.9425884
3738,20203910.290040478
2,5, 1, 5, 0,16, 0.00,60.00,Thursday
135,309027881.6614876
3420,309027881.6614876
3738,15641467.481528439
2,5, 1, 5, 0,17, 0.00,60.00,Thursday
135,312443656.95504934
3420,312443656.9550493
3738,25322054.82401494
2,5, 1, 5, 0,18, 0.00,60.00,Thursday
135,244621806.36539933
3420,244621806.36539933
3738,11106437.11808634
2,5, 1, 5, 0,19, 0.00,60.00,Thursday
135,132384235.43671827
3420,132384235.43671827
3738,18515542.883175965
2,5, 1, 5, 0,20, 0.00,60.00,Thursday
135,113569604.38930234
3420,113569604.38930234
3738,38182825.55833641
2,5, 1, 5, 0,21, 0.00,60.00,Thursday
135,102910895.06207252
3420,102910895.06207252
3738,50500896.487481296
2,5, 1, 5, 0,22, 0.00,60.00,Thursday
135,98331323.74705626
3420,98331323.74705628
3738,64229737.95698746
2,5, 1, 5, 0,23, 0.00,60.00,Thursday
135,77772390.65670998
3420,77772390.65670998
3738,6791184.0
2,5, 1, 5, 0,24, 0.00,60.00,Thursday
135,72442274.24247962
3420,72442274.24247962
3738,6791184.0
2,6, 1, 6, 0, 1, 0.00,60.00,Friday
135,57996196.7332391
3420,57996196.7332391
3738,6791184.0
2,6, 1, 6, 0, 2, 0.00,60.00,Friday
135,57609860.1137362
3420,57609860.1137362
3738,6791184.0
2,6, 1, 6, 0, 3, 0.00,60.00,Friday
135,57609860.1137362
3420,57609860.1137362
3738,6791184.0
2,6, 1, 6, 0, 4, 0.00,60.00,Friday
135,57609860.1137362
3420,57609860.1137362
3738,6791184.0
2,6, 1, 6, 0, 5, 0.00,60.00,Friday
135,57609860.1137362
3420,57609860.1137362
3738,6791184.0
2,6, 1, 6, 0, 6, 0.00,60.00,Friday
135,57609860.1137362
3420,57609860.1137362
3738,6791184.0
2,6, 1, 6, 0, 7, 0.00,60.00,Friday
135,104692760.88779551
3420,104692760.88779552
3738,6791184.0
2,6, 1, 6, 0, 8, 0.00,60.00,Friday
135,191230922.81471357
3420,191230922.81471357
3738,128552154.9998607
2,6, 1, 6, 0, 9, 0.00,60.00,Friday
135,313449081.7035528
3420,313449081.7035528
3738,89613570.99096458
2,6, 1, 6, 0,10, 0.00,60.00,Friday
135,269642642.22146577
3420,269642642.2214657
3738,82140433.02802077
2,6, 1, 6, 0,11, 0.00,60.00,Friday
135,261886479.9875229
3420,261886479.9875229
3738,71738689.1487914
2,6, 1, 6, 0,12, 0.00,60.00,Friday
135,279227605.82357264
3420,279227605.82357264
3738,49220175.092944235
2,6, 1, 6, 0,13, 0.00,60.00,Friday
135,288514578.30768704
3420,288514578.30768704
3738,28287816.253479224
2,6, 1, 6, 0,14, 0.00,60.00,Friday
135,301485464.5042886
3420,301485464.50428855
3738,27522710.58729694
2,6, 1, 6, 0,15, 0.00,60.00,Friday
135,288536581.7902574
3420,288536581.7902574
3738,18948093.63590509
2,6, 1, 6, 0,16, 0.00,60.00,Friday
135,291222764.0796864
3420,291222764.0796864
3738,15649013.703217
2,6, 1, 6, 0,17, 0.00,60.00,Friday
135,301524140.1565262
3420,301524140.1565261
3738,25643523.20672138
2,6, 1, 6, 0,18, 0.00,60.00,Friday
135,250636539.11324325
3420,250636539.11324325
3738,54800786.72640758
2,6, 1, 6, 0,19, 0.00,60.00,Friday
135,131485260.74506974
3420,131485260.74506974
3738,82860163.31580386
2,6, 1, 6, 0,20, 0.00,60.00,Friday
135,113698440.92511103
3420,113698440.92511103
3738,86038261.20579824
2,6, 1, 6, 0,21, 0.00,60.00,Friday
135,105065647.80495234
3420,105065647.80495235
3738,103349671.1367349
2,6, 1, 6, 0,22, 0.00,60.00,Friday
135,101879628.78208283
3420,101879628.78208286
3738,102049353.82039228
2,6, 1, 6, 0,23, 0.00,60.00,Friday
135,77772390.65670998
3420,77772390.65670998
3738,6791184.0
2,6, 1, 6, 0,24, 0.00,60.00,Friday
135,72442274.24247962
3420,72442274.24247962
3738,6791184.0
2,7, 1, 7, 0, 1, 0.00,60.00,Saturday
135,46745513.81922844
3420,46745513.81922843
3738,6791184.0
2,7, 1, 7, 0, 2, 0.00,60.00,Saturday
135,46359235.70955593
3420,46359235.709555924
3738,6791184.0
2,7, 1, 7, 0, 3, 0.00,60.00,Saturday
135,46359235.70955593
3420,46359235.709555924
3738,6791184.0
2,7, 1, 7, 0, 4, 0.00,60.00,Saturday
135,46359235.70955593
3420,46359235.709555924
3738,6791184.0
2,7, 1, 7, 0, 5, 0.00,60.00,Saturday
135,46359235.70955593
3420,46359235.709555924
3738,6791184.0
2,7, 1, 7, 0, 6, 0.00,60.00,Saturday
135,46359235.70955593
3420,46359235.709555924
3738,6791184.0
2,7, 1, 7, 0, 7, 0.00,60.00,Saturday
135,114243520.86393452
3420,114243520.86393452
3738,6791184.0
2,7, 1, 7, 0, 8, 0.00,60.00,Saturday
135,145336722.3926114
3420,145336722.3926114
3738,136705521.5249528
2,7, 1, 7, 0, 9, 0.00,60.00,Saturday
135,135880145.49639097
3420,135880145.49639097
3738,119728191.03389083
2,7, 1, 7, 0,10, 0.00,60.00,Saturday
135,136649462.9317931
3420,136649462.9317931
3738,106496351.49772719
2,7, 1, 7, 0,11, 0.00,60.00,Saturday
135,129025722.21317357
3420,129025722.21317354
3738,78888099.0334056
2,7, 1, 7, 0,12, 0.00,60.00,Saturday
135,137623695.46984386
3420,137623695.46984392
3738,37658309.10205995
2,7, 1, 7, 0,13, 0.00,60.00,Saturday
135,96882759.0683891
3420,96882759.0683891
3738,24908990.810949102
2,7, 1, 7, 0,14, 0.00,60.00,Saturday
135,86585388.12843831
3420,86585388.12843831
3738,26694846.20755917
2,7, 1, 7, 0,15, 0.00,60.00,Saturday
135,80777988.06353001
3420,80777988.06353001
3738,24327998.146299496
2,7, 1, 7, 0,16, 0.00,60.00,Saturday
135,76390043.05621484
3420,76390043.05621485
3738,32454978.106216453
2,7, 1, 7, 0,17, 0.00,60.00,Saturday
135,79595578.36627977
3420,79595578.36627978
3738,41560906.51453599
2,7, 1, 7, 0,18, 0.00,60.00,Saturday
135,83077160.33306564
3420,83077160.33306564
3738,55505117.38757939
2,7, 1, 7, 0,19, 0.00,60.00,Saturday
135,66276703.53612528
3420,66276703.53612528
3738,6791184.0
2,7, 1, 7, 0,20, 0.00,60.00,Saturday
135,49290893.81922844
3420,49290893.81922844
3738,6791184.0
2,7, 1, 7, 0,21, 0.00,60.00,Saturday
135,48904615.70955593
3420,48904615.70955593
3738,6791184.0
2,7, 1, 7, 0,22, 0.00,60.00,Saturday
135,48904615.70955593
3420,48904615.70955593
3738,6791184.0
2,7, 1, 7, 0,23, 0.00,60.00,Saturday
135,48904615.70955593
3420,48904615.70955593
3738,6791184.0
2,7, 1, 7, 0,24, 0.00,60.00,Saturday
135,48904615.70955593
3420,48904615.70955593
3738,6791184.0
2,8, 1, 8, 0, 1, 0.00,60.00,Sunday
135,46359235.70955593
3420,46359235.709555924
3738,6791184.0
2,8, 1, 8, 0, 2, 0.00,60.00,Sunday
135,46359235.70955593
3420,46359235.709555924
3738,6791184.0
2,8, 1, 8, 0, 3, 0.00,60.00,Sunday
135,46359235.70955593
3420,46359235.709555924
3738,6791184.0
2,8, 1, 8, 0, 4, 0.00,60.00,Sunday
135,46359235.70955593
3420,46359235.709555924
3738,6791184.0
2,8, 1, 8, 0, 5, 0.00,60.00,Sunday
135,46359235.70955593
3420,46359235.709555924
3738,6791184.0
2,8, 1, 8, 0, 6, 0.00,60.00,Sunday
135,46359235.70955593
3420,46359235.709555924
3738,6791184.0
2,8, 1, 8, 0, 7, 0.00,60.00,Sunday
135,66032185.73006148
3420,66032185.73006148
3738,6791184.0
2,8, 1, 8, 0, 8, 0.00,60.00,Sunday
135,53323580.330645084
3420,53323580.330645084
3738,6791184.0
2,8, 1, 8, 0, 9, 0.00,60.00,Sunday
135,46344166.24829911
3420,46344166.24829911
3738,6791184.0
2,8, 1, 8, 0,10, 0.00,60.00,Sunday
135,46288812.51597283
3420,46288812.51597283
3738,6791184.0
2,8, 1, 8, 0,11, 0.00,60.00,Sunday
135,47249262.36773562
3420,47249262.36773562
3738,6791184.0
2,8, 1, 8, 0,12, 0.00,60.00,Sunday
135,50818494.841122195
3420,50818494.841122195
3738,6791184.0
2,8, 1, 8, 0,13, 0.00,60.00,Sunday
135,54256376.69260366
3420,54256376.69260368
3738,6791184.0
2,8, 1, 8, 0,14, 0.00,60.00,Sunday
135,53672545.086491816
3420,53672545.086491816
3738,6791184.0
2,8, 1, 8, 0,15, 0.00,60.00,Sunday
135,54203734.78328398
3420,54203734.783283986
3738,6791184.0
2,8, 1, 8, 0,16, 0.00,60.00,Sunday
135,54217992.48384257
3420,54217992.483842574
3738,6791184.0
2,8, 1, 8, 0,17, 0.00,60.00,Sunday
135,50544929.173953526
3420,50544929.173953526
3738,6791184.0
2,8, 1, 8, 0,18, 0.00,60.00,Sunday
135,66276671.30593526
3420,66276671.30593526
3738,6791184.0
2,8, 1, 8, 0,19, 0.00,60.00,Sunday
135,57105773.81922845
3420,57105773.81922844
3738,6791184.0
2,8, 1, 8, 0,20, 0.00,60.00,Sunday
135,48904615.70955593
3420,48904615.70955593
3738,6791184.0
2,8, 1, 8, 0,21, 0.00,60.00,Sunday
135,48904615.70955593
3420,48904615.70955593
3738,6791184.0
2,8, 1, 8, 0,22, 0.00,60.00,Sunday
135,48904615.70955593
3420,48904615.70955593
3738,6791184.0
2,8, 1, 8, 0,23, 0.00,60.00,Sunday
135,48904615.70955593
3420,48904615.70955593
3738,6791184.0
2,8, 1, 8, 0,24, 0.00,60.00,Sunday
135,48904615.70955593
3420,48904615.70955593
3738,6791184.0
2,9, 1, 9, 0, 1, 0.00,60.00,Monday
135,57609860.1137362
3420,57609860.1137362
3738,6791184.0
2,9, 1, 9, 0, 2, 0.00,60.00,Monday
135,57609860.1137362
3420,57609860.1137362
3738,6791184.0
2,9, 1, 9, 0, 3, 0.00,60.00,Monday
135,57609860.1137362
3420,57609860.1137362
3738,6791184.0
2,9, 1, 9, 0, 4, 0.00,60.00,Monday
135,57609860.1137362
3420,57609860.1137362
3738,6791184.0
2,9, 1, 9, 0, 5, 0.00,60.00,Monday
135,57609860.1137362
3420,57609860.1137362
3738,6791184.0
2,9, 1, 9, 0, 6, 0.00,60.00,Monday
135,57609860.1137362
3420,57609860.1137362
3738,6791184.0
2,9, 1, 9, 0, 7, 0.00,60.00,Monday
135,128144876.69429448
3420,128144876.69429448
3738,6791184.0
2,9, 1, 9, 0, 8, 0.00,60.00,Monday
135,217565243.22461972
3420,217565243.22461972
3738,124468068.24002674
2,9, 1, 9, 0, 9, 0.00,60.00,Monday
135,314458450.1890377
3420,314458450.1890376
3738,74951101.47004028
2,9, 1, 9, 0,10, 0.00,60.00,Monday
135,275155516.0280972
3420,275155516.0280972
3738,48119568.617979124
2,9, 1, 9, 0,11, 0.00,60.00,Monday
135,272217355.0655621
3420,272217355.065562
3738,14193389.047048038
2,9, 1, 9, 0,12, 0.00,60.00,Monday
135,286069056.0422344
3420,286069056.0422344
3738,20903856.33989981
2,9, 1, 9, 0,13, 0.00,60.00,Monday
135,285177026.53424704
3420,285177026.5342469
3738,31355574.251405347
2,9, 1, 9, 0,14, 0.00,60.00,Monday
135,302181149.07909226
3420,302181149.07909226
3738,26214926.855344344
2,9, 1, 9, 0,15, 0.00,60.00,Monday
135,297804057.2041419
3420,297804057.2041419
3738,20131560.30220241
2,9, 1, 9, 0,16, 0.00,60.00,Monday
135,306343802.2205968
3420,306343802.2205968
3738,15659339.517745292
2,9, 1, 9, 0,17, 0.00,60.00,Monday
135,314304935.94610846
3420,314304935.9461084
3738,25336253.40235627
2,9, 1, 9, 0,18, 0.00,60.00,Monday
135,241749110.89150858
3420,241749110.89150855
3738,11101278.962910637
2,9, 1, 9, 0,19, 0.00,60.00,Monday
135,131915119.83924252
3420,131915119.83924252
3738,23085849.368455503
2,9, 1, 9, 0,20, 0.00,60.00,Monday
135,113569604.38930234
3420,113569604.38930234
3738,30290564.840234794
2,9, 1, 9, 0,21, 0.00,60.00,Monday
135,103461345.92325383
3420,103461345.92325383
3738,20481410.534678813
2,9, 1, 9, 0,22, 0.00,60.00,Monday
135,100114656.48576982
3420,100114656.48576984
3738,28102787.00212099
2,9, 1, 9, 0,23, 0.00,60.00,Monday
135,77772390.65670998
3420,77772390.65670998
3738,6791184.0
2,9, 1, 9, 0,24, 0.00,60.00,Monday
135,72442274.24247962
3420,72442274.24247962
3738,6791184.0
2,10, 1,10, 0, 1, 0.00,60.00,Tuesday
135,57996196.7332391
3420,57996196.7332391
3738,6791184.0
2,10, 1,10, 0, 2, 0.00,60.00,Tuesday
135,57609860.1137362
3420,57609860.1137362
3738,6791184.0
2,10, 1,10, 0, 3, 0.00,60.00,Tuesday
135,57609860.1137362
3420,57609860.1137362
3738,6791184.0
2,10, 1,10, 0, 4, 0.00,60.00,Tuesday
135,57609860.1137362
3420,57609860.1137362
3738,6791184.0
2,10, 1,10, 0, 5, 0.00,60.00,Tuesday
135,57609860.1137362
3420,57609860.1137362
3738,6791184.0
2,10, 1,10, 0, 6, 0.00,60.00,Tuesday
135,57609860.1137362
3420,57609860.1137362
3738,6791184.0
2,10, 1,10, 0, 7, 0.00,60.00,Tuesday
135,110486325.52609542
3420,110486325.52609542
3738,6791184.0
2,10, 1,10, 0, 8, 0.00,60.00,Tuesday
135,190833948.85150233
3420,190833948.85150233
3738,141910660.51936784
2,10, 1,10, 0, 9, 0.00,60.00,Tuesday
135,308322938.3697139
3420,308322938.3697139
3738,91303697.23678632
2,10, 1,10, 0,10, 0.00,60.00,Tuesday
135,269805341.92507684
3420,269805341.9250768
3738,70198462.2639895
2,10, 1,10, 0,11, 0.00,60.00,Tuesday
135,262399828.44772917
3420,262399828.44772914
3738,60400319.799133085
2,10, 1,10, 0,12, 0.00,60.00,Tuesday
135,272123284.1592201
3420,272123284.15922004
3738,71341275.14298937
2,10, 1,10, 0,13, 0.00,60.00,Tuesday
135,289266472.05583113
3420,289266472.0558311
3738,53284373.184741676
2,10, 1,10, 0,14, 0.00,60.00,Tuesday
135,288311585.3534598
3420,288311585.3534598
3738,33778823.56508925
2,10, 1,10, 0,15, 0.00,60.00,Tuesday
135,280475271.13647985
3420,280475271.13647985
3738,16022058.602940988
2,10, 1,10, 0,16, 0.00,60.00,Tuesday
135,282426820.1954877
3420,282426820.1954876
3738,17505846.469111174
2,10, 1,10, 0,17, 0.00,60.00,Tuesday
135,294414439.7207614
3420,294414439.7207614
3738,23407155.814727016
2,10, 1,10, 0,18, 0.00,60.00,Tuesday
135,250273765.09501398
3420,250273765.09501398
3738,37435044.01202856
2,10, 1,10, 0,19, 0.00,60.00,Tuesday
135,130941389.39594385
3420,130941389.39594385
3738,77298954.36088246
2,10, 1,10, 0,20, 0.00,60.00,Tuesday
135,113658771.69754678
3420,113658771.69754681
3738,81850107.9573189
2,10, 1,10, 0,21, 0.00,60.00,Tuesday
135,104221098.70515329
3420,104221098.7051533
3738,91945962.40546632
2,10, 1,10, 0,22, 0.00,60.00,Tuesday
135,102967491.4911128
3420,102967491.49111283
3738,105284869.29050693
2,10, 1,10, 0,23, 0.00,60.00,Tuesday
135,77772390.65670998
3420,77772390.65670998
3738,6791184.0
2,10, 1,10, 0,24, 0.00,60.00,Tuesday
135,72442274.24247962
3420,72442274.24247962
3738,6791184.0
2,11, 1,11, 0, 1, 0.00,60.00,Wednesday
135,57996196.7332391
3420,57996196.7332391
3738,6791184.0
2,11, 1,11, 0, 2, 0.00,60.00,Wednesday
135,57609860.1137362
3420,57609860.1137362
3738,6791184.0
2,11, 1,11, 0, 3, 0.00,60.00,Wednesday
135,57609860.1137362
3420,57609860.1137362
3738,6791184.0
2,11, 1,11, 0, 4, 0.00,60.00,Wednesday
135,57609860.1137362
3420,57609860.1137362
3738,6791184.0
2,11, 1,11, 0, 5, 0.00,60.00,Wednesday
135,57609860.1137362
3420,57609860.1137362
3738,6791184.0
2,11, 1,11, 0, 6, 0.00,60.00,Wednesday
135,57609860.1137362
3420,57609860.1137362
3738,6791184.0
2,11, 1,11, 0, 7, 0.00,60.00,Wednesday
135,108330098.79569034
3420,108330098.79569034
3738,6791184.0
2,11, 1,11, 0, 8, 0.00,60.00,Wednesday
135,188708282.94759166
3420,188708282.94759166
3738,94611705.13470538
2,11, 1,11, 0, 9, 0.00,60.00,Wednesday
135,304401941.0612274
3420,304401941.0612273
3738,64404248.52208834
2,11, 1,11, 0,10, 0.00,60.00,Wednesday
135,267354053.00229242
3420,267354053.0022924
3738,50572494.20892553
2,11, 1,11, 0,11, 0.00,60.00,Wednesday
135,261458446.88506263
3420,261458446.88506255
3738,22431475.700881075
2,11, 1,11, 0,12, 0.00,60.00,Wednesday
135,270173921.73154926
3420,270173921.73154926
3738,31170234.726299677
2,11, 1,11, 0,13, 0.00,60.00,Wednesday
135,275914468.54428273
3420,275914468.5442827
3738,44840697.85901649
2,11, 1,11, 0,14, 0.00,60.00,Wednesday
135,273871697.5391787
3420,273871697.53917867
3738,32545564.316707604
2,11, 1,11, 0,15, 0.00,60.00,Wednesday
135,259797377.36140484
3420,259797377.36140478
3738,23903431.305061094
2,11, 1,11, 0,16, 0.00,60.00,Wednesday
135,260114985.89358753
3420,260114985.89358753
3738,30771690.48797494
2,11, 1,11, 0,17, 0.00,60.00,Wednesday
135,277259877.58308816
3420,277259877.58308816
3738,59324479.56562762
2,11, 1,11, 0,18, 0.00,60.00,Wednesday
135,242041520.23614013
3420,242041520.2361401
3738,63006035.86398269
2,11, 1,11, 0,19, 0.00,60.00,Wednesday
135,131846657.18334773
3420,131846657.18334773
3738,92743790.03077677
2,11, 1,11, 0,20, 0.00,60.00,Wednesday
135,114150654.07160193
3420,114150654.07160193
3738,101701833.63655548
2,11, 1,11, 0,21, 0.00,60.00,Wednesday
135,105581948.63793088
3420,105581948.6379309
3738,101214385.96738397
2,11, 1,11, 0,22, 0.00,60.00,Wednesday
135,103711570.72436586
3420,103711570.72436589
3738,111723992.74752027
2,11, 1,11, 0,23, 0.00,60.00,Wednesday
135,77772390.65670998
3420,77772390.65670998
3738,6791184.0
2,11, 1,11, 0,24, 0.00,60.00,Wednesday
135,72442274.24247962
3420,72442274.24247962
3738,6791184.0
2,12, 1,12, 0, 1, 0.00,60.00,Thursday
135,57996196.7332391
3420,57996196.7332391
3738,6791184.0
2,12, 1,12, 0, 2, 0.00,60.00,Thursday
135,57609860.1137362
3420,57609860.1137362
3738,6791184.0
2,12, 1,12, 0, 3, 0.00,60.00,Thursday
135,57609860.1137362
3420,57609860.1137362
3738,6791184.0
2,12, 1,12, 0, 4, 0.00,60.00,Thursday
135,57609860.1137362
3420,57609860.1137362
3738,6791184.0
2,12, 1,12, 0, 5, 0.00,60.00,Thursday
135,57609860.1137362
3420,57609860.1137362
3738,6791184.0
2,12, 1,12, 0, 6, 0.00,60.00,Thursday
135,57609860.1137362
3420,57609860.1137362
3738,6791184.0
2,12, 1,12, 0, 7, 0.00,60.00,Thursday
135,112709273.74115586
3420,112709273.74115586
3738,6791184.0
2,12, 1,12, 0, 8, 0.00,60.00,Thursday
135,194998716.88617355
3420,194998716.88617355
3738,142674225.11339954
2,12, 1,12, 0, 9, 0.00,60.00,Thursday
135,311161930.00861716
3420,311161930.00861716
3738,92471947.59797019
2,12, 1,12, 0,10, 0.00,60.00,Thursday
135,268504112.5861273
3420,268504112.5861273
3738,79845011.46013822
2,12, 1,12, 0,11, 0.00,60.00,Thursday
135,261891240.81390792
3420,261891240.8139079
3738,63658775.14294706
2,12, 1,12, 0,12, 0.00,60.00,Thursday
135,274004642.56125176
3420,274004642.56125176
3738,58118839.997829184
2,12, 1,12, 0,13, 0.00,60.00,Thursday
135,293346078.88377815
3420,293346078.88377815
3738,50277007.92356765
2,12, 1,12, 0,14, 0.00,60.00,Thursday
135,284754871.3329893
3420,284754871.3329893
3738,46207295.58270554
2,12, 1,12, 0,15, 0.00,60.00,Thursday
135,269335253.150796
3420,269335253.150796
3738,26892111.05356355
2,12, 1,12, 0,16, 0.00,60.00,Thursday
135,269146867.1303241
3420,269146867.1303241
3738,35073596.035512954
2,12, 1,12, 0,17, 0.00,60.00,Thursday
135,287751158.5286926
3420,287751158.5286926
3738,42204732.53417008
2,12, 1,12, 0,18, 0.00,60.00,Thursday
135,249665227.94672424
3420,249665227.94672424
3738,56280602.96724783
2,12, 1,12, 0,19, 0.00,60.00,Thursday
135,133914193.46528485
3420,133914193.46528485
3738,84322546.12130615
2,12, 1,12, 0,20, 0.00,60.00,Thursday
135,113963062.50890177
3420,113963062.50890177
3738,81566252.03398165
2,12, 1,12, 0,21, 0.00,60.00,Thursday
135,105423473.96545817
3420,105423473.9654582
3738,85186346.35428557
2,12, 1,12, 0,22, 0.00,60.00,Thursday
135,102745177.37966435
3420,102745177.37966436
3738,87495560.19099845
2,12, 1,12, 0,23, 0.00,60.00,Thursday
135,77772390.65670998
3420,77772390.65670998
3738,6791184.0
2,12, 1,12, 0,24, 0.00,60.00,Thursday
135,72442274.24247962
3420,72442274.24247962
3738,6791184.0
2,13, 1,13, 0, 1, 0.00,60.00,Friday
135,57996196.7332391
3420,57996196.7332391