Program Version,EnergyPlus, Version 9.6.0-f420c06a69, YMD=2022.07.16 15:10
1,5,Environment Title[],Latitude[deg],Longitude[deg],Time Zone[],Elevation[m]
2,8,Day of Simulation[],Month[],Day of Month[],DST Indicator[1=yes 0=no],Hour[],StartMinute[],EndMinute[],DayType
3,5,Cumulative Day of Simulation[],Month[],Day of Month[],DST Indicator[1=yes 0=no],DayType  ! When Daily Meters Requested
4,2,Cumulative Days of Simulation[],Month[]  ! When Monthly Meters Requested
5,1,Cumulative Days of Simulation[] ! When Run Period Meters Requested
6,1,Calendar Year of Simulation[] ! When Annual Meters Requested
135,1,Electricity:Facility [J] !Hourly
3420,1,ElectricityNet:Facility [J] !Hourly
3738,1,NaturalGas:Facility [J] !Hourly
End of Data Dictionary
1,RUNPERIOD 1,  35.04,-106.62,  -7.00,1619.00
2,1, 1, 1, 0, 1, 0.00,60.00,Holiday
135,46359074.93593144
3420,46359074.93593143
3738,6791184.0
2,1, 1, 1, 0, 2, 0.00,60.00,Holiday
135,46359235.70955593
3420,46359235.709555924
3738,6791184.0
2,1, 1, 1, 0, 3, 0.00,60.00,Holiday
135,46359235.70955593
3420,46359235.709555924
3738,6791184.0
2,1, 1, 1, 0, 4, 0.00,60.00,Holiday
135,46359235.70955593
3420,46359235.709555924
3738,6791184.0
2,1, 1, 1, 0, 5, 0.00,60.00,Holiday
135,46359235.70955593
3420,46359235.709555924
3738,6791184.0
2,1, 1, 1, 0, 6, 0.00,60.00,Holiday
135,46359235.70955593
3420,46359235.709555924
3738,6791184.0
2,1, 1, 1, 0, 7, 0.00,60.00,Holiday
135,66032185.73006148
3420,66032185.73006148
3738,6791184.0
2,1, 1, 1, 0, 8, 0.00,60.00,Holiday
135,50074623.774579875
3420,50074623.774579875
3738,6791184.0
2,1, 1, 1, 0, 9, 0.00,60.00,Holiday
135,46351708.9331394
3420,46351708.9331394
3738,6791184.0
2,1, 1, 1, 0,10, 0.00,60.00,Holiday
135,46288813.17904917
3420,46288813.179049164
3738,6791184.0
2,1, 1, 1, 0,11, 0.00,60.00,Holiday
135,51149014.50787013
3420,51149014.50787013
3738,6791184.0
2,1, 1, 1, 0,12, 0.00,60.00,Holiday
135,53542591.30173427
3420,53542591.30173427
3738,6791184.0
2,1, 1, 1, 0,13, 0.00,60.00,Holiday
135,54827857.64153222
3420,54827857.64153222
3738,6791184.0
2,1, 1, 1, 0,14, 0.00,60.00,Holiday
135,61196507.52122828
3420,61196507.5212283
3738,6791184.0
2,1, 1, 1, 0,15, 0.00,60.00,Holiday
135,67239153.60782859
3420,67239153.60782859
3738,6791184.0
2,1, 1, 1, 0,16, 0.00,60.00,Holiday
135,64721412.807741076
3420,64721412.80774109
3738,6791184.0
2,1, 1, 1, 0,17, 0.00,60.00,Holiday
135,55473596.479658276
3420,55473596.479658276
3738,6791184.0
2,1, 1, 1, 0,18, 0.00,60.00,Holiday
135,66905826.86107348
3420,66905826.86107348
3738,6791184.0
2,1, 1, 1, 0,19, 0.00,60.00,Holiday
135,57105773.81922845
3420,57105773.81922844
3738,6791184.0
2,1, 1, 1, 0,20, 0.00,60.00,Holiday
135,48904615.70955593
3420,48904615.70955593
3738,6791184.0
2,1, 1, 1, 0,21, 0.00,60.00,Holiday
135,48904615.70955593
3420,48904615.70955593
3738,6791184.0
2,1, 1, 1, 0,22, 0.00,60.00,Holiday
135,48904615.70955593
3420,48904615.70955593
3738,6791184.0
2,1, 1, 1, 0,23, 0.00,60.00,Holiday
135,48904615.70955593
3420,48904615.70955593
3738,6791184.0
2,1, 1, 1, 0,24, 0.00,60.00,Holiday
135,48904615.70955593
3420,48904615.70955593
3738,6791184.0
2,2, 1, 2, 0, 1, 0.00,60.00,Monday
135,57609860.1137362
3420,57609860.1137362
3738,6791184.0
2,2, 1, 2, 0, 2, 0.00,60.00,Monday
135,57609860.1137362
3420,57609860.1137362
3738,6791184.0
2,2, 1, 2, 0, 3, 0.00,60.00,Monday
135,57609860.1137362
3420,57609860.1137362
3738,6791184.0
2,2, 1, 2, 0, 4, 0.00,60.00,Monday
135,57609860.1137362
3420,57609860.1137362
3738,6791184.0
2,2, 1, 2, 0, 5, 0.00,60.00,Monday
135,57609860.1137362
3420,57609860.1137362
3738,6791184.0
2,2, 1, 2, 0, 6, 0.00,60.00,Monday
135,57609860.1137362
3420,57609860.1137362
3738,6791184.0
2,2, 1, 2, 0, 7, 0.00,60.00,Monday
135,127996825.63454857
3420,127996825.63454857
3738,6791184.0
2,2, 1, 2, 0, 8, 0.00,60.00,Monday
135,215776918.25572556
3420,215776918.25572553
3738,138020718.205081
2,2, 1, 2, 0, 9, 0.00,60.00,Monday
135,308779831.98790205
3420,308779831.98790205
3738,82873177.66038454
2,2, 1, 2, 0,10, 0.00,60.00,Monday
135,272391633.6877966
3420,272391633.68779653
3738,53951717.89646106
2,2, 1, 2, 0,11, 0.00,60.00,Monday
135,270626858.73905873
3420,270626858.73905873
3738,16290746.029742379
2,2, 1, 2, 0,12, 0.00,60.00,Monday
135,289695713.59204376
3420,289695713.59204376
3738,20876788.629584327
2,2, 1, 2, 0,13, 0.00,60.00,Monday
135,291132855.59700644
3420,291132855.59700644
3738,31334466.06780298
2,2, 1, 2, 0,14, 0.00,60.00,Monday
135,308021486.08789706
3420,308021486.08789706
3738,26165957.600102253
2,2, 1, 2, 0,15, 0.00,60.00,Monday
135,301222934.61526537
3420,301222934.6152653
3738,16608219.527592774
2,2, 1, 2, 0,16, 0.00,60.00,Monday
135,306260640.67507416
3420,306260640.67507416
3738,19132384.55082509
2,2, 1, 2, 0,17, 0.00,60.00,Monday
135,303775473.3403636
3420,303775473.34036356
3738,20696667.15605069
2,2, 1, 2, 0,18, 0.00,60.00,Monday
135,238144633.47194412
3420,238144633.4719441
3738,19995254.898005724
2,2, 1, 2, 0,19, 0.00,60.00,Monday
135,130915817.59055667
3420,130915817.59055667
3738,46965666.73843971
2,2, 1, 2, 0,20, 0.00,60.00,Monday
135,114591120.3768551
3420,114591120.3768551
3738,60485811.603654675
2,2, 1, 2, 0,21, 0.00,60.00,Monday
135,105863576.09982648
3420,105863576.09982648
3738,74237317.72791636
2,2, 1, 2, 0,22, 0.00,60.00,Monday
135,103011114.57527736
3420,103011114.57527736
3738,75836107.61545125
2,2, 1, 2, 0,23, 0.00,60.00,Monday
135,77772390.65670998
3420,77772390.65670998
3738,6791184.0
2,2, 1, 2, 0,24, 0.00,60.00,Monday
135,72442274.24247962
3420,72442274.24247962
3738,6791184.0
2,3, 1, 3, 0, 1, 0.00,60.00,Tuesday
135,57996196.7332391
3420,57996196.7332391
3738,6791184.0
2,3, 1, 3, 0, 2, 0.00,60.00,Tuesday
135,57609860.1137362
3420,57609860.1137362
3738,6791184.0
2,3, 1, 3, 0, 3, 0.00,60.00,Tuesday
135,57609860.1137362
3420,57609860.1137362
3738,6791184.0
2,3, 1, 3, 0, 4, 0.00,60.00,Tuesday
135,57609860.1137362
3420,57609860.1137362
3738,6791184.0
2,3, 1, 3, 0, 5, 0.00,60.00,Tuesday
135,57609860.1137362
3420,57609860.1137362
3738,6791184.0
2,3, 1, 3, 0, 6, 0.00,60.00,Tuesday
135,57609860.1137362
3420,57609860.1137362
3738,6791184.0
2,3, 1, 3, 0, 7, 0.00,60.00,Tuesday
135,106931257.37472215
3420,106931257.37472212
3738,6791184.0
2,3, 1, 3, 0, 8, 0.00,60.00,Tuesday
135,184734841.1423446
3420,184734841.1423446
3738,120832959.7297068
2,3, 1, 3, 0, 9, 0.00,60.00,Tuesday
135,312265575.62436616
3420,312265575.62436616
3738,68892671.80928904
2,3, 1, 3, 0,10, 0.00,60.00,Tuesday
135,279812349.24392164
3420,279812349.24392164
3738,27777781.23698724
2,3, 1, 3, 0,11, 0.00,60.00,Tuesday
135,278334900.0313619
3420,278334900.0313619
3738,9295933.261404604
2,3, 1, 3, 0,12, 0.00,60.00,Tuesday
135,290684622.63813865
3420,290684622.63813865
3738,23542259.622301124
2,3, 1, 3, 0,13, 0.00,60.00,Tuesday
135,290073427.60944575
3420,290073427.60944575
3738,31314670.33408197
2,3, 1, 3, 0,14, 0.00,60.00,Tuesday
135,311174944.21262676
3420,311174944.21262676
3738,26173987.99966827
2,3, 1, 3, 0,15, 0.00,60.00,Tuesday
135,304966823.9567958
3420,304966823.95679575
3738,20136318.258841217
2,3, 1, 3, 0,16, 0.00,60.00,Tuesday
135,309054752.76813424
3420,309054752.7681342
3738,15643327.510827746
2,3, 1, 3, 0,17, 0.00,60.00,Tuesday
135,309940042.67176265
3420,309940042.67176265
3738,20680908.056054913
2,3, 1, 3, 0,18, 0.00,60.00,Tuesday
135,242680258.7493111
3420,242680258.7493111
3738,16251871.944199989
2,3, 1, 3, 0,19, 0.00,60.00,Tuesday
135,132069713.17156494
3420,132069713.17156494
3738,26106541.95556266
2,3, 1, 3, 0,20, 0.00,60.00,Tuesday
135,113569604.38930234
3420,113569604.38930234
3738,44462398.210499495
2,3, 1, 3, 0,21, 0.00,60.00,Tuesday
135,102910895.06207252
3420,102910895.06207252
3738,53926673.13748605
2,3, 1, 3, 0,22, 0.00,60.00,Tuesday
135,98770175.473992
3420,98770175.47399203
3738,83388411.44147202
2,3, 1, 3, 0,23, 0.00,60.00,Tuesday
135,77772390.65670998
3420,77772390.65670998
3738,6791184.0
2,3, 1, 3, 0,24, 0.00,60.00,Tuesday
135,72442274.24247962
3420,72442274.24247962
3738,6791184.0
2,4, 1, 4, 0, 1, 0.00,60.00,Wednesday
135,57996196.7332391
3420,57996196.7332391
3738,6791184.0
2,4, 1, 4, 0, 2, 0.00,60.00,Wednesday
135,57609860.1137362
3420,57609860.1137362
3738,6791184.0
2,4, 1, 4, 0, 3, 0.00,60.00,Wednesday
135,57609860.1137362
3420,57609860.1137362
3738,6791184.0
2,4, 1, 4, 0, 4, 0.00,60.00,Wednesday
135,57609860.1137362
3420,57609860.1137362
3738,6791184.0
2,4, 1, 4, 0, 5, 0.00,60.00,Wednesday
135,57609860.1137362
3420,57609860.1137362
3738,6791184.0
2,4, 1, 4, 0, 6, 0.00,60.00,Wednesday
135,57609860.1137362
3420,57609860.1137362
3738,6791184.0
2,4, 1, 4, 0, 7, 0.00,60.00,Wednesday
135,103755454.93082415
3420,103755454.93082415
3738,6791184.0
2,4, 1, 4, 0, 8, 0.00,60.00,Wednesday
135,184491004.4643848
3420,184491004.4643848
3738,139683752.67577988
2,4, 1, 4, 0, 9, 0.00,60.00,Wednesday
135,309257276.77714854
3420,309257276.7771486
3738,83095029.78652705
2,4, 1, 4, 0,10, 0.00,60.00,Wednesday
135,272185113.924669
3420,272185113.924669
3738,54652377.40591665
2,4, 1, 4, 0,11, 0.00,60.00,Wednesday
135,266550562.08486056
3420,266550562.0848605
3738,34899162.16140272
2,4, 1, 4, 0,12, 0.00,60.00,Wednesday
135,281292242.9374631
3420,281292242.937463
3738,23607985.38142342
2,4, 1, 4, 0,13, 0.00,60.00,Wednesday
135,285973572.2964015
3420,285973572.29640144
3738,31348798.230013758
2,4, 1, 4, 0,14, 0.00,60.00,Wednesday
135,292396348.3474302
3420,292396348.3474302
3738,26188383.082518335
2,4, 1, 4, 0,15, 0.00,60.00,Wednesday
135,278008462.45040125
3420,278008462.4504012
3738,20127398.64565487
2,4, 1, 4, 0,16, 0.00,60.00,Wednesday
135,276567879.07587034
3420,276567879.0758703
3738,15653031.365050662
2,4, 1, 4, 0,17, 0.00,60.00,Wednesday
135,295619053.0977887
3420,295619053.0977887
3738,25318407.36601815
2,4, 1, 4, 0,18, 0.00,60.00,Wednesday
135,251666145.63531768
3420,251666145.63531768
3738,22358722.969562326
2,4, 1, 4, 0,19, 0.00,60.00,Wednesday
135,131940241.86443192
3420,131940241.86443192
3738,45239634.17808126
2,4, 1, 4, 0,20, 0.00,60.00,Wednesday
135,113569604.38930234
3420,113569604.38930234
3738,65777387.06645329
2,4, 1, 4, 0,21, 0.00,60.00,Wednesday
135,102910895.06207252
3420,102910895.06207252
3738,84202203.20157543
2,4, 1, 4, 0,22, 0.00,60.00,Wednesday
135,99145274.33241571
3420,99145274.33241574
3738,99807375.58792573
2,4, 1, 4, 0,23, 0.00,60.00,Wednesday
135,77772390.65670998
3420,77772390.65670998
3738,6791184.0
2,4, 1, 4, 0,24, 0.00,60.00,Wednesday
135,72442274.24247962
3420,72442274.24247962
3738,6791184.0
2,5, 1, 5, 0, 1, 0.00,60.00,Thursday
135,57996196.7332391
3420,57996196.7332391
3738,6791184.0
2,5, 1, 5, 0, 2, 0.00,60.00,Thursday
135,57609860.1137362
3420,57609860.1137362
3738,6791184.0
2,5, 1, 5, 0, 3, 0.00,60.00,Thursday
135,57609860.1137362
3420,57609860.1137362
3738,6791184.0
2,5, 1, 5, 0, 4, 0.00,60.00,Thursday
135,57609860.1137362
3420,57609860.1137362
3738,6791184.0
2,5, 1, 5, 0, 5, 0.00,60.00,Thursday
135,57609860.1137362
3420,57609860.1137362
3738,6791184.0
2,5, 1, 5, 0, 6, 0.00,60.00,Thursday
135,57609860.1137362
3420,57609860.1137362
3738,6791184.0
2,5, 1, 5, 0, 7, 0.00,60.00,Thursday
135,104517401.15644827
3420,104517401.1564483
3738,6791184.0
2,5, 1, 5, 0, 8, 0.00,60.00,Thursday
135,182071439.4540187
3420,182071439.4540187
3738,131126573.77647765
2,5, 1, 5, 0, 9, 0.00,60.00,Thursday
135,310794152.0181799
3420,310794152.0181799
3738,68282940.37544
2,5, 1, 5, 0,10, 0.00,60.00,Thursday
135,278808946.7323062
3420,278808946.7323061
3738,20517550.5288943
2,5, 1, 5, 0,11, 0.00,60.00,Thursday
135,278258046.63310564
3420,278258046.6331055
3738,11332786.089901261
2,5, 1, 5, 0,12, 0.00,60.00,Thursday
135,290977449.95159537
3420,290977449.9515953
3738,20890669.55449055
2,5, 1, 5, 0,13, 0.00,60.00,Thursday
135,294636016.861341
3420,294636016.861341
3738,31320946.700324886
2,5, 1, 5, 0,14, 0.00,60.00,Thursday
135,317295811.1704401
3420,317295811.1704401
3738,26189121.518295445
2,5, 1, 5, 0,15, 0.00,60.00,Thursday
135,309827233.5093436
3420,309827233.5093436
3738,20204466.231196754
2,5, 1, 5, 0,16, 0.00,60.00,Thursday
135,312190450.2337421
3420,312190450.23374206
3738,15641794.321401134
2,5, 1, 5, 0,17, 0.00,60.00,Thursday
135,313557038.9094912
3420,313557038.9094912
3738,25321971.893473003
2,5, 1, 5, 0,18, 0.00,60.00,Thursday
135,245021984.58805734
3420,245021984.58805734
3738,11105402.919495212
2,5, 1, 5, 0,19, 0.00,60.00,Thursday
135,132264037.3298165
3420,132264037.3298165
3738,24054460.78727896
2,5, 1, 5, 0,20, 0.00,60.00,Thursday
135,113569604.38930234
3420,113569604.38930234
3738,52246147.30795645
2,5, 1, 5, 0,21, 0.00,60.00,Thursday
135,102910895.06207252
3420,102910895.06207252
3738,69658803.7171419
2,5, 1, 5, 0,22, 0.00,60.00,Thursday
135,98793778.16547306
3420,98793778.16547307
3738,87647436.73645033
2,5, 1, 5, 0,23, 0.00,60.00,Thursday
135,77772390.65670998
3420,77772390.65670998
3738,6791184.0
2,5, 1, 5, 0,24, 0.00,60.00,Thursday
135,72442274.24247962
3420,72442274.24247962
3738,6791184.0
2,6, 1, 6, 0, 1, 0.00,60.00,Friday
135,57996196.7332391
3420,57996196.7332391
3738,6791184.0
2,6, 1, 6, 0, 2, 0.00,60.00,Friday
135,57609860.1137362
3420,57609860.1137362
3738,6791184.0
2,6, 1, 6, 0, 3, 0.00,60.00,Friday
135,57609860.1137362
3420,57609860.1137362
3738,6791184.0
2,6, 1, 6, 0, 4, 0.00,60.00,Friday
135,57609860.1137362
3420,57609860.1137362
3738,6791184.0
2,6, 1, 6, 0, 5, 0.00,60.00,Friday
135,57609860.1137362
3420,57609860.1137362
3738,6791184.0
2,6, 1, 6, 0, 6, 0.00,60.00,Friday
135,57609860.1137362
3420,57609860.1137362
3738,6791184.0
2,6, 1, 6, 0, 7, 0.00,60.00,Friday
135,109863624.10110766
3420,109863624.10110766
3738,6791184.0
2,6, 1, 6, 0, 8, 0.00,60.00,Friday
135,198974443.99663568
3420,198974443.99663565
3738,137902898.9893039
2,6, 1, 6, 0, 9, 0.00,60.00,Friday
135,316297644.570167
3420,316297644.570167
3738,91808981.75754946
2,6, 1, 6, 0,10, 0.00,60.00,Friday
135,270662036.9084787
3420,270662036.9084787
3738,81313329.88082735
2,6, 1, 6, 0,11, 0.00,60.00,Friday
135,262188202.6043948
3420,262188202.60439476
3738,68584604.95626752
2,6, 1, 6, 0,12, 0.00,60.00,Friday
135,279878668.4285929
3420,279878668.4285929
3738,45281208.26660481
2,6, 1, 6, 0,13, 0.00,60.00,Friday
135,289810640.2605771
3420,289810640.260577
3738,27943627.6970972
2,6, 1, 6, 0,14, 0.00,60.00,Friday
135,305681490.89728045
3420,305681490.8972804
3738,27499909.212326534
2,6, 1, 6, 0,15, 0.00,60.00,Friday
135,297869393.53141063
3420,297869393.5314105
3738,18972609.20074602
2,6, 1, 6, 0,16, 0.00,60.00,Friday
135,300281148.206989
3420,300281148.206989
3738,15649070.833154984
2,6, 1, 6, 0,17, 0.00,60.00,Friday
135,304105116.8237205
3420,304105116.8237205
3738,25975576.922733393
2,6, 1, 6, 0,18, 0.00,60.00,Friday
135,250318261.9304554
3420,250318261.9304554
3738,57550928.032528765
2,6, 1, 6, 0,19, 0.00,60.00,Friday
135,131458719.65545188
3420,131458719.6554519
3738,92356170.70162706
2,6, 1, 6, 0,20, 0.00,60.00,Friday
135,114267685.11217049
3420,114267685.11217047
3738,100590156.440256
2,6, 1, 6, 0,21, 0.00,60.00,Friday
135,106540401.09220102
3420,106540401.09220105
3738,122885253.2066784
2,6, 1, 6, 0,22, 0.00,60.00,Friday
135,104195606.02748999
3420,104195606.02749003
3738,125658386.88052581
2,6, 1, 6, 0,23, 0.00,60.00,Friday
135,77772390.65670998
3420,77772390.65670998
3738,6791184.0
2,6, 1, 6, 0,24, 0.00,60.00,Friday
135,72442274.24247962
3420,72442274.24247962
3738,6791184.0
2,7, 1, 7, 0, 1, 0.00,60.00,Saturday
135,46745513.81922844
3420,46745513.81922843
3738,6791184.0
2,7, 1, 7, 0, 2, 0.00,60.00,Saturday
135,46359235.70955593
3420,46359235.709555924
3738,6791184.0
2,7, 1, 7, 0, 3, 0.00,60.00,Saturday
135,46359235.70955593
3420,46359235.709555924
3738,6791184.0
2,7, 1, 7, 0, 4, 0.00,60.00,Saturday
135,46359235.70955593
3420,46359235.709555924
3738,6791184.0
2,7, 1, 7, 0, 5, 0.00,60.00,Saturday
135,46359235.70955593
3420,46359235.709555924
3738,6791184.0
2,7, 1, 7, 0, 6, 0.00,60.00,Saturday
135,46359235.70955593
3420,46359235.709555924
3738,6791184.0
2,7, 1, 7, 0, 7, 0.00,60.00,Saturday
135,119665619.34435566
3420,119665619.34435566
3738,6791184.0
2,7, 1, 7, 0, 8, 0.00,60.00,Saturday
135,153366406.90231293
3420,153366406.9023129
3738,144962420.0010611
2,7, 1, 7, 0, 9, 0.00,60.00,Saturday
135,139275358.26218554
3420,139275358.2621855
3738,123306658.87806293
2,7, 1, 7, 0,10, 0.00,60.00,Saturday
135,138254594.51006693
3420,138254594.51006693
3738,105585457.22194888
2,7, 1, 7, 0,11, 0.00,60.00,Saturday
135,129709352.77394786
3420,129709352.77394786
3738,74209035.4353328
2,7, 1, 7, 0,12, 0.00,60.00,Saturday
135,138070422.51335606
3420,138070422.51335606
3738,32462637.063182615
2,7, 1, 7, 0,13, 0.00,60.00,Saturday
135,97134359.59532037
3420,97134359.59532037
3738,19239227.91395259
2,7, 1, 7, 0,14, 0.00,60.00,Saturday
135,86581971.78198315
3420,86581971.78198317
3738,19142376.29487696
2,7, 1, 7, 0,15, 0.00,60.00,Saturday
135,80777988.06353001
3420,80777988.06353001
3738,17509632.858490627
2,7, 1, 7, 0,16, 0.00,60.00,Saturday
135,76567615.4214319
3420,76567615.4214319
3738,28893887.866771773
2,7, 1, 7, 0,17, 0.00,60.00,Saturday
135,79944068.15857384
3420,79944068.15857385
3738,41499856.61844489
2,7, 1, 7, 0,18, 0.00,60.00,Saturday
135,83077160.33306564
3420,83077160.33306564
3738,59304374.92275016
2,7, 1, 7, 0,19, 0.00,60.00,Saturday
135,66276703.53612528
3420,66276703.53612528
3738,6791184.0
2,7, 1, 7, 0,20, 0.00,60.00,Saturday
135,49290893.81922844
3420,49290893.81922844
3738,6791184.0
2,7, 1, 7, 0,21, 0.00,60.00,Saturday
135,48904615.70955593
3420,48904615.70955593
3738,6791184.0
2,7, 1, 7, 0,22, 0.00,60.00,Saturday
135,48904615.70955593
3420,48904615.70955593
3738,6791184.0
2,7, 1, 7, 0,23, 0.00,60.00,Saturday
135,48904615.70955593
3420,48904615.70955593
3738,6791184.0
2,7, 1, 7, 0,24, 0.00,60.00,Saturday
135,48904615.70955593
3420,48904615.70955593
3738,6791184.0
2,8, 1, 8, 0, 1, 0.00,60.00,Sunday
135,46359235.70955593
3420,46359235.709555924
3738,6791184.0
2,8, 1, 8, 0, 2, 0.00,60.00,Sunday
135,46359235.70955593
3420,46359235.709555924
3738,6791184.0
2,8, 1, 8, 0, 3, 0.00,60.00,Sunday
135,46359235.70955593
3420,46359235.709555924
3738,6791184.0
2,8, 1, 8, 0, 4, 0.00,60.00,Sunday
135,46359235.70955593
3420,46359235.709555924
3738,6791184.0
2,8, 1, 8, 0, 5, 0.00,60.00,Sunday
135,46359235.70955593
3420,46359235.709555924
3738,6791184.0
2,8, 1, 8, 0, 6, 0.00,60.00,Sunday
135,46359235.70955593
3420,46359235.709555924
3738,6791184.0
2,8, 1, 8, 0, 7, 0.00,60.00,Sunday
135,66032185.73006148
3420,66032185.73006148
3738,6791184.0
2,8, 1, 8, 0, 8, 0.00,60.00,Sunday
135,53323580.330645084
3420,53323580.330645084
3738,6791184.0
2,8, 1, 8, 0, 9, 0.00,60.00,Sunday
135,46344166.24829911
3420,46344166.24829911
3738,6791184.0
2,8, 1, 8, 0,10, 0.00,60.00,Sunday
135,46288812.51597283
3420,46288812.51597283
3738,6791184.0
2,8, 1, 8, 0,11, 0.00,60.00,Sunday
135,47006952.40063282
3420,47006952.40063281
3738,6791184.0
2,8, 1, 8, 0,12, 0.00,60.00,Sunday
135,49257907.50439534
3420,49257907.50439534
3738,6791184.0
2,8, 1, 8, 0,13, 0.00,60.00,Sunday
135,54643377.20528089
3420,54643377.20528089
3738,6791184.0
2,8, 1, 8, 0,14, 0.00,60.00,Sunday
135,53125338.00199564
3420,53125338.001995645
3738,6791184.0
2,8, 1, 8, 0,15, 0.00,60.00,Sunday
135,54837249.03392823
3420,54837249.033928245
3738,6791184.0
2,8, 1, 8, 0,16, 0.00,60.00,Sunday
135,54032156.75765158
3420,54032156.75765157
3738,6791184.0
2,8, 1, 8, 0,17, 0.00,60.00,Sunday
135,50563859.3799178
3420,50563859.3799178
3738,6791184.0
2,8, 1, 8, 0,18, 0.00,60.00,Sunday
135,66276671.30593526
3420,66276671.30593526
3738,6791184.0
2,8, 1, 8, 0,19, 0.00,60.00,Sunday
135,57105773.81922845
3420,57105773.81922844
3738,6791184.0
2,8, 1, 8, 0,20, 0.00,60.00,Sunday
135,48904615.70955593
3420,48904615.70955593
3738,6791184.0
2,8, 1, 8, 0,21, 0.00,60.00,Sunday
135,48904615.70955593
3420,48904615.70955593
3738,6791184.0
2,8, 1, 8, 0,22, 0.00,60.00,Sunday
135,48904615.70955593
3420,48904615.70955593
3738,6791184.0
2,8, 1, 8, 0,23, 0.00,60.00,Sunday
135,48904615.70955593
3420,48904615.70955593
3738,6791184.0
2,8, 1, 8, 0,24, 0.00,60.00,Sunday
135,48904615.70955593
3420,48904615.70955593
3738,6791184.0
2,9, 1, 9, 0, 1, 0.00,60.00,Monday
135,57609860.1137362
3420,57609860.1137362
3738,6791184.0
2,9, 1, 9, 0, 2, 0.00,60.00,Monday
135,57609860.1137362
3420,57609860.1137362
3738,6791184.0
2,9, 1, 9, 0, 3, 0.00,60.00,Monday
135,57609860.1137362
3420,57609860.1137362
3738,6791184.0
2,9, 1, 9, 0, 4, 0.00,60.00,Monday
135,57609860.1137362
3420,57609860.1137362
3738,6791184.0
2,9, 1, 9, 0, 5, 0.00,60.00,Monday
135,57609860.1137362
3420,57609860.1137362
3738,6791184.0
2,9, 1, 9, 0, 6, 0.00,60.00,Monday
135,57609860.1137362
3420,57609860.1137362
3738,6791184.0
2,9, 1, 9, 0, 7, 0.00,60.00,Monday
135,132740509.58397764
3420,132740509.58397762
3738,6791184.0
2,9, 1, 9, 0, 8, 0.00,60.00,Monday
135,225587267.68987393
3420,225587267.68987387
3738,129548487.0118219
2,9, 1, 9, 0, 9, 0.00,60.00,Monday
135,315164568.8059973
3420,315164568.80599725
3738,78414708.13983767
2,9, 1, 9, 0,10, 0.00,60.00,Monday
135,274570105.05189925
3420,274570105.05189925
3738,52882820.013302326
2,9, 1, 9, 0,11, 0.00,60.00,Monday
135,269939168.2867209
3420,269939168.2867209
3738,18254062.115919642
2,9, 1, 9, 0,12, 0.00,60.00,Monday
135,287694974.77928215
3420,287694974.77928215
3738,20903855.611449733
2,9, 1, 9, 0,13, 0.00,60.00,Monday
135,285047244.9285712
3420,285047244.92857116
3738,31355574.118694555
2,9, 1, 9, 0,14, 0.00,60.00,Monday
135,299101862.1872661
3420,299101862.1872661
3738,26214927.030045282
2,9, 1, 9, 0,15, 0.00,60.00,Monday
135,294144760.8453018
3420,294144760.8453018
3738,20171160.739952467
2,9, 1, 9, 0,16, 0.00,60.00,Monday
135,302386559.87111306
3420,302386559.871113
3738,15658140.575939087
2,9, 1, 9, 0,17, 0.00,60.00,Monday
135,310878765.711946
3420,310878765.711946
3738,25336588.239375845
2,9, 1, 9, 0,18, 0.00,60.00,Monday
135,240854206.97188425
3420,240854206.97188425
3738,11510551.040979391
2,9, 1, 9, 0,19, 0.00,60.00,Monday
135,131838236.54038686
3420,131838236.54038686
3738,27043675.700581834
2,9, 1, 9, 0,20, 0.00,60.00,Monday
135,113753160.42071751
3420,113753160.42071751
3738,35505335.70434764
2,9, 1, 9, 0,21, 0.00,60.00,Monday
135,104538654.89603727
3420,104538654.89603728
3738,25317663.508946054
2,9, 1, 9, 0,22, 0.00,60.00,Monday
135,101412602.90278143
3420,101412602.90278147
3738,32528824.409331255
2,9, 1, 9, 0,23, 0.00,60.00,Monday
135,77772390.65670998
3420,77772390.65670998
3738,6791184.0
2,9, 1, 9, 0,24, 0.00,60.00,Monday
135,72442274.24247962
3420,72442274.24247962
3738,6791184.0
2,10, 1,10, 0, 1, 0.00,60.00,Tuesday
135,57996196.7332391
3420,57996196.7332391
3738,6791184.0
2,10, 1,10, 0, 2, 0.00,60.00,Tuesday
135,57609860.1137362
3420,57609860.1137362
3738,6791184.0
2,10, 1,10, 0, 3, 0.00,60.00,Tuesday
135,57609860.1137362
3420,57609860.1137362
3738,6791184.0
2,10, 1,10, 0, 4, 0.00,60.00,Tuesday
135,57609860.1137362
3420,57609860.1137362
3738,6791184.0
2,10, 1,10, 0, 5, 0.00,60.00,Tuesday
135,57609860.1137362
3420,57609860.1137362
3738,6791184.0
2,10, 1,10, 0, 6, 0.00,60.00,Tuesday
135,57609860.1137362
3420,57609860.1137362
3738,6791184.0
2,10, 1,10, 0, 7, 0.00,60.00,Tuesday
135,112550492.94116095
3420,112550492.94116092
3738,6791184.0
2,10, 1,10, 0, 8, 0.00,60.00,Tuesday
135,194466968.05545628
3420,194466968.05545628
3738,143043564.56882057
2,10, 1,10, 0, 9, 0.00,60.00,Tuesday
135,308344484.7434192
3420,308344484.7434191
3738,91891718.45305993
2,10, 1,10, 0,10, 0.00,60.00,Tuesday
135,269236700.1160116
3420,269236700.1160116
3738,70257687.52795984
2,10, 1,10, 0,11, 0.00,60.00,Tuesday
135,261791121.29322737
3420,261791121.29322734
3738,60305189.9887435
2,10, 1,10, 0,12, 0.00,60.00,Tuesday
135,271581667.6455744
3420,271581667.6455744
3738,70867175.06264174
2,10, 1,10, 0,13, 0.00,60.00,Tuesday
135,288816098.41787624
3420,288816098.41787624
3738,53079916.17799053
2,10, 1,10, 0,14, 0.00,60.00,Tuesday
135,287790775.64829195
3420,287790775.6482918
3738,33328801.538033593
2,10, 1,10, 0,15, 0.00,60.00,Tuesday
135,279478466.13197106
3420,279478466.131971
3738,16015173.414863547
2,10, 1,10, 0,16, 0.00,60.00,Tuesday
135,281485727.1283857
3420,281485727.1283857
3738,17513587.051071253
2,10, 1,10, 0,17, 0.00,60.00,Tuesday
135,293673031.68740904
3420,293673031.68740904
3738,23399127.909864947
2,10, 1,10, 0,18, 0.00,60.00,Tuesday
135,249798600.77747142
3420,249798600.77747142
3738,34377905.920195706
2,10, 1,10, 0,19, 0.00,60.00,Tuesday
135,130930288.8431314
3420,130930288.8431314
3738,72011450.45235354
2,10, 1,10, 0,20, 0.00,60.00,Tuesday
135,113723002.12498026
3420,113723002.12498026
3738,75941269.96741782
2,10, 1,10, 0,21, 0.00,60.00,Tuesday
135,104414971.9259234
3420,104414971.92592344
3738,85426575.6834545
2,10, 1,10, 0,22, 0.00,60.00,Tuesday
135,103168997.00089431
3420,103168997.00089428
3738,98206823.180289
2,10, 1,10, 0,23, 0.00,60.00,Tuesday
135,77772390.65670998
3420,77772390.65670998
3738,6791184.0
2,10, 1,10, 0,24, 0.00,60.00,Tuesday
135,72442274.24247962
3420,72442274.24247962
3738,6791184.0
2,11, 1,11, 0, 1, 0.00,60.00,Wednesday
135,57996196.7332391
3420,57996196.7332391
3738,6791184.0
2,11, 1,11, 0, 2, 0.00,60.00,Wednesday
135,57609860.1137362
3420,57609860.1137362
3738,6791184.0
2,11, 1,11, 0, 3, 0.00,60.00,Wednesday
135,57609860.1137362
3420,57609860.1137362
3738,6791184.0
2,11, 1,11, 0, 4, 0.00,60.00,Wednesday
135,57609860.1137362
3420,57609860.1137362
3738,6791184.0
2,11, 1,11, 0, 5, 0.00,60.00,Wednesday
135,57609860.1137362
3420,57609860.1137362
3738,6791184.0
2,11, 1,11, 0, 6, 0.00,60.00,Wednesday
135,57609860.1137362
3420,57609860.1137362
3738,6791184.0
2,11, 1,11, 0, 7, 0.00,60.00,Wednesday
135,107008182.642748
3420,107008182.642748
3738,6791184.0
2,11, 1,11, 0, 8, 0.00,60.00,Wednesday
135,186358326.95060456
3420,186358326.95060453
3738,84753494.49987844
2,11, 1,11, 0, 9, 0.00,60.00,Wednesday
135,303488600.2091473
3420,303488600.2091472
3738,58164466.05170579
2,11, 1,11, 0,10, 0.00,60.00,Wednesday
135,267176055.74163198
3420,267176055.74163195
3738,43318219.64482007
2,11, 1,11, 0,11, 0.00,60.00,Wednesday
135,261657565.63133216
3420,261657565.63133216
3738,16595726.732160045
2,11, 1,11, 0,12, 0.00,60.00,Wednesday
135,270319359.72714734
3420,270319359.72714734
3738,26358945.627485767
2,11, 1,11, 0,13, 0.00,60.00,Wednesday
135,273514408.1357534
3420,273514408.1357534
3738,37852201.03536871
2,11, 1,11, 0,14, 0.00,60.00,Wednesday
135,273782305.1307397
3420,273782305.1307397
3738,28787831.27854356
2,11, 1,11, 0,15, 0.00,60.00,Wednesday
135,259779987.6731057
3420,259779987.6731057
3738,20311245.58792142
2,11, 1,11, 0,16, 0.00,60.00,Wednesday
135,260100899.83074433
3420,260100899.83074427
3738,23990374.70690586
2,11, 1,11, 0,17, 0.00,60.00,Wednesday
135,277219588.37361795
3420,277219588.3736179
3738,52221845.18979103
2,11, 1,11, 0,18, 0.00,60.00,Wednesday
135,241797603.70729518
3420,241797603.7072952
3738,56635937.818499625
2,11, 1,11, 0,19, 0.00,60.00,Wednesday
135,131670438.63950324
3420,131670438.63950324
3738,82581229.97343147
2,11, 1,11, 0,20, 0.00,60.00,Wednesday
135,113725464.91174674
3420,113725464.91174674
3738,91847071.74908899
2,11, 1,11, 0,21, 0.00,60.00,Wednesday
135,104669202.01356351
3420,104669202.01356354
3738,91448383.22580075
2,11, 1,11, 0,22, 0.00,60.00,Wednesday
135,102350200.51935337
3420,102350200.51935337
3738,102157232.80251762
2,11, 1,11, 0,23, 0.00,60.00,Wednesday
135,77772390.65670998
3420,77772390.65670998
3738,6791184.0
2,11, 1,11, 0,24, 0.00,60.00,Wednesday
135,72442274.24247962
3420,72442274.24247962
3738,6791184.0
2,12, 1,12, 0, 1, 0.00,60.00,Thursday
135,57996196.7332391
3420,57996196.7332391
3738,6791184.0
2,12, 1,12, 0, 2, 0.00,60.00,Thursday
135,57609860.1137362
3420,57609860.1137362
3738,6791184.0
2,12, 1,12, 0, 3, 0.00,60.00,Thursday
135,57609860.1137362
3420,57609860.1137362
3738,6791184.0
2,12, 1,12, 0, 4, 0.00,60.00,Thursday
135,57609860.1137362
3420,57609860.1137362
3738,6791184.0
2,12, 1,12, 0, 5, 0.00,60.00,Thursday
135,57609860.1137362
3420,57609860.1137362
3738,6791184.0
2,12, 1,12, 0, 6, 0.00,60.00,Thursday
135,57609860.1137362
3420,57609860.1137362
3738,6791184.0
2,12, 1,12, 0, 7, 0.00,60.00,Thursday
135,109975350.65999334
3420,109975350.65999334
3738,6791184.0
2,12, 1,12, 0, 8, 0.00,60.00,Thursday
135,190821903.33986965
3420,190821903.33986962
3738,132157341.6896534
2,12, 1,12, 0, 9, 0.00,60.00,Thursday
135,310514150.85103434
3420,310514150.85103434
3738,85801826.3890625
2,12, 1,12, 0,10, 0.00,60.00,Thursday
135,269162575.5771407
3420,269162575.57714075
3738,73379823.65380529
2,12, 1,12, 0,11, 0.00,60.00,Thursday
135,262953973.44652298
3420,262953973.44652295
3738,56982829.39842735
2,12, 1,12, 0,12, 0.00,60.00,Thursday
135,275078826.6506082
3420,275078826.6506082
3738,50575267.68227183
2,12, 1,12, 0,13, 0.00,60.00,Thursday
135,292167146.6296036
3420,292167146.62960356
3738,42855176.074547134
2,12, 1,12, 0,14, 0.00,60.00,Thursday
135,285854571.53049016
3420,285854571.53049016
3738,38129960.59480025
2,12, 1,12, 0,15, 0.00,60.00,Thursday
135,270342541.11975783
3420,270342541.1197578
3738,19394167.475341883
2,12, 1,12, 0,16, 0.00,60.00,Thursday
135,270196667.066511
3420,270196667.066511
3738,27407869.219066806
2,12, 1,12, 0,17, 0.00,60.00,Thursday
135,288785834.44433624
3420,288785834.44433624
3738,34752115.53628184
2,12, 1,12, 0,18, 0.00,60.00,Thursday
135,250669318.17793286
3420,250669318.17793286
3738,49774882.082573764
2,12, 1,12, 0,19, 0.00,60.00,Thursday
135,132685058.48068245
3420,132685058.48068243
3738,73863345.79979293
2,12, 1,12, 0,20, 0.00,60.00,Thursday
135,113569604.38930234
3420,113569604.38930234
3738,71526778.35880895
2,12, 1,12, 0,21, 0.00,60.00,Thursday
135,104052704.17248946
3420,104052704.17248948
3738,75256916.25667563
2,12, 1,12, 0,22, 0.00,60.00,Thursday
135,101148643.39668533
3420,101148643.39668536
3738,77792216.52911453
2,12, 1,12, 0,23, 0.00,60.00,Thursday
135,77772390.65670998
3420,77772390.65670998
3738,6791184.0
2,12, 1,12, 0,24, 0.00,60.00,Thursday
135,72442274.24247962
3420,72442274.24247962
3738,6791184.0
2,13, 1,13, 0, 1, 0.00,60.00,Friday
135,57996196.7332391
3420,57996196.7332391
3738,6791184.0