Program Version,EnergyPlus, Version 9.6.0-f420c06a69, YMD=2022.07.05 14:39
1,5,Environment Title[],Latitude[deg],Longitude[deg],Time Zone[],Elevation[m]
2,8,Day of Simulation[],Month[],Day of Month[],DST Indicator[1=yes 0=no],Hour[],StartMinute[],EndMinute[],DayType
3,5,Cumulative Day of Simulation[],Month[],Day of Month[],DST Indicator[1=yes 0=no],DayType  ! When Daily Meters Requested
4,2,Cumulative Days of Simulation[],Month[]  ! When Monthly Meters Requested
5,1,Cumulative Days of Simulation[] ! When Run Period Meters Requested
6,1,Calendar Year of Simulation[] ! When Annual Meters Requested
135,1,Electricity:Facility [J] !Hourly
3420,1,ElectricityNet:Facility [J] !Hourly
3738,1,NaturalGas:Facility [J] !Hourly
End of Data Dictionary
1,RUNPERIOD 1,  35.04,-106.62,  -7.00,1619.00
2,1, 1, 1, 0, 1, 0.00,60.00,Holiday
135,46359074.93593144
3420,46359074.93593143
3738,6791184.0
2,1, 1, 1, 0, 2, 0.00,60.00,Holiday
135,46359235.70955593
3420,46359235.709555924
3738,6791184.0
2,1, 1, 1, 0, 3, 0.00,60.00,Holiday
135,46359235.70955593
3420,46359235.709555924
3738,6791184.0
2,1, 1, 1, 0, 4, 0.00,60.00,Holiday
135,46359235.70955593
3420,46359235.709555924
3738,6791184.0
2,1, 1, 1, 0, 5, 0.00,60.00,Holiday
135,46359235.70955593
3420,46359235.709555924
3738,6791184.0
2,1, 1, 1, 0, 6, 0.00,60.00,Holiday
135,46359235.70955593
3420,46359235.709555924
3738,6791184.0
2,1, 1, 1, 0, 7, 0.00,60.00,Holiday
135,66032185.73006148
3420,66032185.73006148
3738,6791184.0
2,1, 1, 1, 0, 8, 0.00,60.00,Holiday
135,50074623.774579875
3420,50074623.774579875
3738,6791184.0
2,1, 1, 1, 0, 9, 0.00,60.00,Holiday
135,46351708.9331394
3420,46351708.9331394
3738,6791184.0
2,1, 1, 1, 0,10, 0.00,60.00,Holiday
135,46288813.17904917
3420,46288813.179049164
3738,6791184.0
2,1, 1, 1, 0,11, 0.00,60.00,Holiday
135,50009342.363199614
3420,50009342.363199614
3738,6791184.0
2,1, 1, 1, 0,12, 0.00,60.00,Holiday
135,53617732.55272024
3420,53617732.55272024
3738,6791184.0
2,1, 1, 1, 0,13, 0.00,60.00,Holiday
135,53634290.22678877
3420,53634290.22678876
3738,6791184.0
2,1, 1, 1, 0,14, 0.00,60.00,Holiday
135,58165555.4574862
3420,58165555.45748622
3738,6791184.0
2,1, 1, 1, 0,15, 0.00,60.00,Holiday
135,62026144.28259239
3420,62026144.28259239
3738,6791184.0
2,1, 1, 1, 0,16, 0.00,60.00,Holiday
135,62605261.924326405
3420,62605261.924326405
3738,6791184.0
2,1, 1, 1, 0,17, 0.00,60.00,Holiday
135,50224406.74534619
3420,50224406.74534619
3738,6791184.0
2,1, 1, 1, 0,18, 0.00,60.00,Holiday
135,67534969.93162571
3420,67534969.93162571
3738,6791184.0
2,1, 1, 1, 0,19, 0.00,60.00,Holiday
135,57105773.81922845
3420,57105773.81922844
3738,6791184.0
2,1, 1, 1, 0,20, 0.00,60.00,Holiday
135,48904615.70955593
3420,48904615.70955593
3738,6791184.0
2,1, 1, 1, 0,21, 0.00,60.00,Holiday
135,48904615.70955593
3420,48904615.70955593
3738,6791184.0
2,1, 1, 1, 0,22, 0.00,60.00,Holiday
135,48904615.70955593
3420,48904615.70955593
3738,6791184.0
2,1, 1, 1, 0,23, 0.00,60.00,Holiday
135,48904615.70955593
3420,48904615.70955593
3738,6791184.0
2,1, 1, 1, 0,24, 0.00,60.00,Holiday
135,48904615.70955593
3420,48904615.70955593
3738,6791184.0
2,2, 1, 2, 0, 1, 0.00,60.00,Monday
135,57609860.1137362
3420,57609860.1137362
3738,6791184.0
2,2, 1, 2, 0, 2, 0.00,60.00,Monday
135,57609860.1137362
3420,57609860.1137362
3738,6791184.0
2,2, 1, 2, 0, 3, 0.00,60.00,Monday
135,57609860.1137362
3420,57609860.1137362
3738,6791184.0
2,2, 1, 2, 0, 4, 0.00,60.00,Monday
135,57609860.1137362
3420,57609860.1137362
3738,6791184.0
2,2, 1, 2, 0, 5, 0.00,60.00,Monday
135,57609860.1137362
3420,57609860.1137362
3738,6791184.0
2,2, 1, 2, 0, 6, 0.00,60.00,Monday
135,57609860.1137362
3420,57609860.1137362
3738,6791184.0
2,2, 1, 2, 0, 7, 0.00,60.00,Monday
135,137296304.18115827
3420,137296304.18115827
3738,6791184.0
2,2, 1, 2, 0, 8, 0.00,60.00,Monday
135,228091710.0508986
3420,228091710.0508986
3738,147577462.2909266
2,2, 1, 2, 0, 9, 0.00,60.00,Monday
135,310928566.17060184
3420,310928566.17060184
3738,92519461.25435951
2,2, 1, 2, 0,10, 0.00,60.00,Monday
135,270881865.80048376
3420,270881865.8004837
3738,64104549.62432517
2,2, 1, 2, 0,11, 0.00,60.00,Monday
135,266825978.4651965
3420,266825978.46519646
3738,26002213.802575894
2,2, 1, 2, 0,12, 0.00,60.00,Monday
135,286238561.40794075
3420,286238561.40794075
3738,20876803.489152778
2,2, 1, 2, 0,13, 0.00,60.00,Monday
135,288356518.2716734
3420,288356518.2716734
3738,31334359.881758783
2,2, 1, 2, 0,14, 0.00,60.00,Monday
135,302746724.4123445
3420,302746724.4123446
3738,26165959.07661317
2,2, 1, 2, 0,15, 0.00,60.00,Monday
135,293819224.0517824
3420,293819224.05178237
3738,16663115.875671532
2,2, 1, 2, 0,16, 0.00,60.00,Monday
135,297636955.48481643
3420,297636955.48481643
3738,19076354.39078077
2,2, 1, 2, 0,17, 0.00,60.00,Monday
135,297915216.1379733
3420,297915216.1379733
3738,20696594.111287683
2,2, 1, 2, 0,18, 0.00,60.00,Monday
135,238193079.3098045
3420,238193079.30980447
3738,28921239.674664464
2,2, 1, 2, 0,19, 0.00,60.00,Monday
135,131683908.20014992
3420,131683908.20014992
3738,66811701.24498099
2,2, 1, 2, 0,20, 0.00,60.00,Monday
135,116938303.64021173
3420,116938303.64021173
3738,82836282.94348064
2,2, 1, 2, 0,21, 0.00,60.00,Monday
135,108771388.57078198
3420,108771388.57078198
3738,96357195.93630506
2,2, 1, 2, 0,22, 0.00,60.00,Monday
135,107221100.17945608
3420,107221100.1794561
3738,99543062.69805098
2,2, 1, 2, 0,23, 0.00,60.00,Monday
135,77772390.65670998
3420,77772390.65670998
3738,6791184.0
2,2, 1, 2, 0,24, 0.00,60.00,Monday
135,72442274.24247962
3420,72442274.24247962
3738,6791184.0
2,3, 1, 3, 0, 1, 0.00,60.00,Tuesday
135,57996196.7332391
3420,57996196.7332391
3738,6791184.0
2,3, 1, 3, 0, 2, 0.00,60.00,Tuesday
135,57609860.1137362
3420,57609860.1137362
3738,6791184.0
2,3, 1, 3, 0, 3, 0.00,60.00,Tuesday
135,57609860.1137362
3420,57609860.1137362
3738,6791184.0
2,3, 1, 3, 0, 4, 0.00,60.00,Tuesday
135,57609860.1137362
3420,57609860.1137362
3738,6791184.0
2,3, 1, 3, 0, 5, 0.00,60.00,Tuesday
135,57609860.1137362
3420,57609860.1137362
3738,6791184.0
2,3, 1, 3, 0, 6, 0.00,60.00,Tuesday
135,57609860.1137362
3420,57609860.1137362
3738,6791184.0
2,3, 1, 3, 0, 7, 0.00,60.00,Tuesday
135,118016686.744011
3420,118016686.74401101
3738,6791184.0
2,3, 1, 3, 0, 8, 0.00,60.00,Tuesday
135,200958834.24694842
3420,200958834.24694842
3738,161531568.19660977
2,3, 1, 3, 0, 9, 0.00,60.00,Tuesday
135,311112664.26659524
3420,311112664.26659524
3738,99056331.86284325
2,3, 1, 3, 0,10, 0.00,60.00,Tuesday
135,271885218.4038677
3420,271885218.4038677
3738,65159747.53323261
2,3, 1, 3, 0,11, 0.00,60.00,Tuesday
135,268924238.0482051
3420,268924238.0482051
3738,31281703.634040393
2,3, 1, 3, 0,12, 0.00,60.00,Tuesday
135,286594160.1901235
3420,286594160.19012344
3738,24000518.6716703
2,3, 1, 3, 0,13, 0.00,60.00,Tuesday
135,287658811.1643734
3420,287658811.1643734
3738,31353956.43535852
2,3, 1, 3, 0,14, 0.00,60.00,Tuesday
135,303715590.65508413
3420,303715590.6550841
3738,26183512.761146072
2,3, 1, 3, 0,15, 0.00,60.00,Tuesday
135,296099172.6422301
3420,296099172.64223003
3738,20170617.640331376
2,3, 1, 3, 0,16, 0.00,60.00,Tuesday
135,300637468.79210246
3420,300637468.7921024
3738,15643879.550683085
2,3, 1, 3, 0,17, 0.00,60.00,Tuesday
135,308013336.3064879
3420,308013336.3064878
3738,20681545.84002651
2,3, 1, 3, 0,18, 0.00,60.00,Tuesday
135,244847299.08621854
3420,244847299.0862185
3738,42375128.12381636
2,3, 1, 3, 0,19, 0.00,60.00,Tuesday
135,130869910.91692853
3420,130869910.91692853
3738,80033361.56040582
2,3, 1, 3, 0,20, 0.00,60.00,Tuesday
135,114625214.07287513
3420,114625214.07287513
3738,100896571.46969914
2,3, 1, 3, 0,21, 0.00,60.00,Tuesday
135,105867352.0102241
3420,105867352.01022415
3738,110343736.37424491
2,3, 1, 3, 0,22, 0.00,60.00,Tuesday
135,104984948.68028122
3420,104984948.68028125
3738,141314185.6547687
2,3, 1, 3, 0,23, 0.00,60.00,Tuesday
135,77772390.65670998
3420,77772390.65670998
3738,6791184.0
2,3, 1, 3, 0,24, 0.00,60.00,Tuesday
135,72442274.24247962
3420,72442274.24247962
3738,6791184.0
2,4, 1, 4, 0, 1, 0.00,60.00,Wednesday
135,57996196.7332391
3420,57996196.7332391
3738,6791184.0
2,4, 1, 4, 0, 2, 0.00,60.00,Wednesday
135,57609860.1137362
3420,57609860.1137362
3738,6791184.0
2,4, 1, 4, 0, 3, 0.00,60.00,Wednesday
135,57609860.1137362
3420,57609860.1137362
3738,6791184.0
2,4, 1, 4, 0, 4, 0.00,60.00,Wednesday
135,57609860.1137362
3420,57609860.1137362
3738,6791184.0
2,4, 1, 4, 0, 5, 0.00,60.00,Wednesday
135,57609860.1137362
3420,57609860.1137362
3738,6791184.0
2,4, 1, 4, 0, 6, 0.00,60.00,Wednesday
135,57609860.1137362
3420,57609860.1137362
3738,6791184.0
2,4, 1, 4, 0, 7, 0.00,60.00,Wednesday
135,124175774.04712711
3420,124175774.04712711
3738,6791184.0
2,4, 1, 4, 0, 8, 0.00,60.00,Wednesday
135,218814896.00317064
3420,218814896.0031706
3738,201995516.34262177
2,4, 1, 4, 0, 9, 0.00,60.00,Wednesday
135,318553167.14706534
3420,318553167.1470653
3738,137930379.73317835
2,4, 1, 4, 0,10, 0.00,60.00,Wednesday
135,269045453.039545
3420,269045453.03954506
3738,107515733.27382523
2,4, 1, 4, 0,11, 0.00,60.00,Wednesday
135,258260901.39444312
3420,258260901.3944431
3738,83249022.20269321
2,4, 1, 4, 0,12, 0.00,60.00,Wednesday
135,270652941.0982498
3420,270652941.09824973
3738,70355609.98047945
2,4, 1, 4, 0,13, 0.00,60.00,Wednesday
135,289885413.6075739
3420,289885413.60757387
3738,60929937.53425273
2,4, 1, 4, 0,14, 0.00,60.00,Wednesday
135,283596817.1168979
3420,283596817.1168979
3738,40799206.81783243
2,4, 1, 4, 0,15, 0.00,60.00,Wednesday
135,268653840.3382875
3420,268653840.3382875
3738,30495753.7264654
2,4, 1, 4, 0,16, 0.00,60.00,Wednesday
135,268276149.73282683
3420,268276149.73282683
3738,32370207.610640913
2,4, 1, 4, 0,17, 0.00,60.00,Wednesday
135,288079159.89948106
3420,288079159.899481
3738,55551026.22349059
2,4, 1, 4, 0,18, 0.00,60.00,Wednesday
135,247480405.7475273
3420,247480405.74752733
3738,61279490.21053217
2,4, 1, 4, 0,19, 0.00,60.00,Wednesday
135,132361166.03766748
3420,132361166.03766748
3738,103115564.71055818
2,4, 1, 4, 0,20, 0.00,60.00,Wednesday
135,116530668.60076337
3420,116530668.60076337
3738,116119196.0814379
2,4, 1, 4, 0,21, 0.00,60.00,Wednesday
135,111305669.5177654
3420,111305669.5177654
3738,128631174.60390215
2,4, 1, 4, 0,22, 0.00,60.00,Wednesday
135,111265839.66727144
3420,111265839.66727144
3738,140597633.3653744
2,4, 1, 4, 0,23, 0.00,60.00,Wednesday
135,77772390.65670998
3420,77772390.65670998
3738,6791184.0
2,4, 1, 4, 0,24, 0.00,60.00,Wednesday
135,72442274.24247962
3420,72442274.24247962
3738,6791184.0
2,5, 1, 5, 0, 1, 0.00,60.00,Thursday
135,57996196.7332391
3420,57996196.7332391
3738,6791184.0
2,5, 1, 5, 0, 2, 0.00,60.00,Thursday
135,57609860.1137362
3420,57609860.1137362
3738,6791184.0
2,5, 1, 5, 0, 3, 0.00,60.00,Thursday
135,57609860.1137362
3420,57609860.1137362
3738,6791184.0
2,5, 1, 5, 0, 4, 0.00,60.00,Thursday
135,57609860.1137362
3420,57609860.1137362
3738,6791184.0
2,5, 1, 5, 0, 5, 0.00,60.00,Thursday
135,57609860.1137362
3420,57609860.1137362
3738,6791184.0
2,5, 1, 5, 0, 6, 0.00,60.00,Thursday
135,57609860.1137362
3420,57609860.1137362
3738,6791184.0
2,5, 1, 5, 0, 7, 0.00,60.00,Thursday
135,123760533.27992924
3420,123760533.27992925
3738,6791184.0
2,5, 1, 5, 0, 8, 0.00,60.00,Thursday
135,212181645.72736338
3420,212181645.7273634
3738,187782170.1260505
2,5, 1, 5, 0, 9, 0.00,60.00,Thursday
135,313316291.37410176
3420,313316291.37410176
3738,112683674.552701
2,5, 1, 5, 0,10, 0.00,60.00,Thursday
135,270318267.3592664
3420,270318267.3592664
3738,68929082.50684837
2,5, 1, 5, 0,11, 0.00,60.00,Thursday
135,265655969.1405087
3420,265655969.14050868
3738,38410706.918981925
2,5, 1, 5, 0,12, 0.00,60.00,Thursday
135,280506357.2958808
3420,280506357.29588073
3738,25591050.3580416
2,5, 1, 5, 0,13, 0.00,60.00,Thursday
135,285318827.3558829
3420,285318827.3558828
3738,31411027.35525238
2,5, 1, 5, 0,14, 0.00,60.00,Thursday
135,297161176.31361383
3420,297161176.3136138
3738,26199538.846310228
2,5, 1, 5, 0,15, 0.00,60.00,Thursday
135,283074256.0193511
3420,283074256.019351
3738,20157687.57240036
2,5, 1, 5, 0,16, 0.00,60.00,Thursday
135,286312525.01511514
3420,286312525.01511514
3738,15643311.366247071
2,5, 1, 5, 0,17, 0.00,60.00,Thursday
135,299507868.1152009
3420,299507868.1152008
3738,25322520.715550605
2,5, 1, 5, 0,18, 0.00,60.00,Thursday
135,249993653.20971447
3420,249993653.20971444
3738,35214847.76916554
2,5, 1, 5, 0,19, 0.00,60.00,Thursday
135,130921973.61543292
3420,130921973.61543292
3738,70939434.92612222
2,5, 1, 5, 0,20, 0.00,60.00,Thursday
135,115184533.57835585
3420,115184533.57835585
3738,97077521.73411308
2,5, 1, 5, 0,21, 0.00,60.00,Thursday
135,107817665.02533624
3420,107817665.02533627
3738,111026530.95449428
2,5, 1, 5, 0,22, 0.00,60.00,Thursday
135,107669365.43820402
3420,107669365.43820402
3738,119470094.6233894
2,5, 1, 5, 0,23, 0.00,60.00,Thursday
135,77772390.65670998
3420,77772390.65670998
3738,6791184.0
2,5, 1, 5, 0,24, 0.00,60.00,Thursday
135,72442274.24247962
3420,72442274.24247962
3738,6791184.0
2,6, 1, 6, 0, 1, 0.00,60.00,Friday
135,57996196.7332391
3420,57996196.7332391
3738,6791184.0
2,6, 1, 6, 0, 2, 0.00,60.00,Friday
135,57609860.1137362
3420,57609860.1137362
3738,6791184.0
2,6, 1, 6, 0, 3, 0.00,60.00,Friday
135,57609860.1137362
3420,57609860.1137362
3738,6791184.0
2,6, 1, 6, 0, 4, 0.00,60.00,Friday
135,57609860.1137362
3420,57609860.1137362
3738,6791184.0
2,6, 1, 6, 0, 5, 0.00,60.00,Friday
135,57609860.1137362
3420,57609860.1137362
3738,6791184.0
2,6, 1, 6, 0, 6, 0.00,60.00,Friday
135,57609860.1137362
3420,57609860.1137362
3738,6791184.0
2,6, 1, 6, 0, 7, 0.00,60.00,Friday
135,126406395.97845599
3420,126406395.97845602
3738,6791184.0
2,6, 1, 6, 0, 8, 0.00,60.00,Friday
135,226985435.5977855
3420,226985435.5977855
3738,179685963.3674853
2,6, 1, 6, 0, 9, 0.00,60.00,Friday
135,328138886.62010103
3420,328138886.62010103
3738,122978674.358047
2,6, 1, 6, 0,10, 0.00,60.00,Friday
135,278289052.5973785
3420,278289052.5973785
3738,124299791.4600121
2,6, 1, 6, 0,11, 0.00,60.00,Friday
135,261325379.3824035
3420,261325379.38240343
3738,105796396.57034631
2,6, 1, 6, 0,12, 0.00,60.00,Friday
135,269867486.09526813
3420,269867486.09526813
3738,89307018.13050118
2,6, 1, 6, 0,13, 0.00,60.00,Friday
135,285220181.5404564
3420,285220181.5404564
3738,54371972.41571977
2,6, 1, 6, 0,14, 0.00,60.00,Friday
135,290010954.68598956
3420,290010954.68598956
3738,30223020.95839395
2,6, 1, 6, 0,15, 0.00,60.00,Friday
135,280989990.92590606
3420,280989990.925906
3738,15682675.282121707
2,6, 1, 6, 0,16, 0.00,60.00,Friday
135,282115784.38581
3420,282115784.38581
3738,20079477.020936593
2,6, 1, 6, 0,17, 0.00,60.00,Friday
135,291069227.2496887
3420,291069227.2496886
3738,38282865.32218627
2,6, 1, 6, 0,18, 0.00,60.00,Friday
135,246535482.20690608
3420,246535482.20690614
3738,79161596.0803602
2,6, 1, 6, 0,19, 0.00,60.00,Friday
135,134902835.12606877
3420,134902835.12606874
3738,115105768.07892141
2,6, 1, 6, 0,20, 0.00,60.00,Friday
135,120113498.55352455
3420,120113498.55352455
3738,116339115.08557397
2,6, 1, 6, 0,21, 0.00,60.00,Friday
135,114000291.32481344
3420,114000291.32481346
3738,131326207.13643225
2,6, 1, 6, 0,22, 0.00,60.00,Friday
135,112453591.90864146
3420,112453591.90864147
3738,128115646.96364178
2,6, 1, 6, 0,23, 0.00,60.00,Friday
135,77772390.65670998
3420,77772390.65670998
3738,6791184.0
2,6, 1, 6, 0,24, 0.00,60.00,Friday
135,72442274.24247962
3420,72442274.24247962
3738,6791184.0
2,7, 1, 7, 0, 1, 0.00,60.00,Saturday
135,46745513.81922844
3420,46745513.81922843
3738,6791184.0
2,7, 1, 7, 0, 2, 0.00,60.00,Saturday
135,46359235.70955593
3420,46359235.709555924
3738,6791184.0
2,7, 1, 7, 0, 3, 0.00,60.00,Saturday
135,46359235.70955593
3420,46359235.709555924
3738,6791184.0
2,7, 1, 7, 0, 4, 0.00,60.00,Saturday
135,46359235.70955593
3420,46359235.709555924
3738,6791184.0
2,7, 1, 7, 0, 5, 0.00,60.00,Saturday
135,46359235.70955593
3420,46359235.709555924
3738,6791184.0
2,7, 1, 7, 0, 6, 0.00,60.00,Saturday
135,46359235.70955593
3420,46359235.709555924
3738,6791184.0
2,7, 1, 7, 0, 7, 0.00,60.00,Saturday
135,127986469.5703474
3420,127986469.5703474
3738,6791184.0
2,7, 1, 7, 0, 8, 0.00,60.00,Saturday
135,169723971.76567593
3420,169723971.76567596
3738,145809126.7312302
2,7, 1, 7, 0, 9, 0.00,60.00,Saturday
135,145118149.8056621
3420,145118149.8056621
3738,128571260.8931942
2,7, 1, 7, 0,10, 0.00,60.00,Saturday
135,142352797.542501
3420,142352797.542501
3738,115286315.3565621
2,7, 1, 7, 0,11, 0.00,60.00,Saturday
135,131842566.71001324
3420,131842566.71001324
3738,86446110.78146471
2,7, 1, 7, 0,12, 0.00,60.00,Saturday
135,137226275.6104195
3420,137226275.6104195
3738,46839283.647606194
2,7, 1, 7, 0,13, 0.00,60.00,Saturday
135,97101152.00188491
3420,97101152.00188491
3738,30398199.111266166
2,7, 1, 7, 0,14, 0.00,60.00,Saturday
135,87134473.24801248
3420,87134473.24801248
3738,30845595.798328005
2,7, 1, 7, 0,15, 0.00,60.00,Saturday
135,81158737.59076405
3420,81158737.59076406
3738,28627078.383313313
2,7, 1, 7, 0,16, 0.00,60.00,Saturday
135,77795779.2546988
3420,77795779.25469881
3738,35375191.81550847
2,7, 1, 7, 0,17, 0.00,60.00,Saturday
135,82382015.83699682
3420,82382015.83699682
3738,43982577.27799151
2,7, 1, 7, 0,18, 0.00,60.00,Saturday
135,83077160.33306564
3420,83077160.33306564
3738,57288392.697833195
2,7, 1, 7, 0,19, 0.00,60.00,Saturday
135,66276703.53612528
3420,66276703.53612528
3738,6791184.0
2,7, 1, 7, 0,20, 0.00,60.00,Saturday
135,49290893.81922844
3420,49290893.81922844
3738,6791184.0
2,7, 1, 7, 0,21, 0.00,60.00,Saturday
135,48904615.70955593
3420,48904615.70955593
3738,6791184.0
2,7, 1, 7, 0,22, 0.00,60.00,Saturday
135,48904615.70955593
3420,48904615.70955593
3738,6791184.0
2,7, 1, 7, 0,23, 0.00,60.00,Saturday
135,48904615.70955593
3420,48904615.70955593
3738,6791184.0
2,7, 1, 7, 0,24, 0.00,60.00,Saturday
135,48904615.70955593
3420,48904615.70955593
3738,6791184.0
2,8, 1, 8, 0, 1, 0.00,60.00,Sunday
135,46359235.70955593
3420,46359235.709555924
3738,6791184.0
2,8, 1, 8, 0, 2, 0.00,60.00,Sunday
135,46359235.70955593
3420,46359235.709555924
3738,6791184.0
2,8, 1, 8, 0, 3, 0.00,60.00,Sunday
135,46359235.70955593
3420,46359235.709555924
3738,6791184.0
2,8, 1, 8, 0, 4, 0.00,60.00,Sunday
135,46359235.70955593
3420,46359235.709555924
3738,6791184.0
2,8, 1, 8, 0, 5, 0.00,60.00,Sunday
135,46359235.70955593
3420,46359235.709555924
3738,6791184.0
2,8, 1, 8, 0, 6, 0.00,60.00,Sunday
135,46359235.70955593
3420,46359235.709555924
3738,6791184.0
2,8, 1, 8, 0, 7, 0.00,60.00,Sunday
135,66032185.73006148
3420,66032185.73006148
3738,6791184.0
2,8, 1, 8, 0, 8, 0.00,60.00,Sunday
135,53323580.330645084
3420,53323580.330645084
3738,6791184.0
2,8, 1, 8, 0, 9, 0.00,60.00,Sunday
135,46344166.24829911
3420,46344166.24829911
3738,6791184.0
2,8, 1, 8, 0,10, 0.00,60.00,Sunday
135,46288812.51597283
3420,46288812.51597283
3738,6791184.0
2,8, 1, 8, 0,11, 0.00,60.00,Sunday
135,46288812.51597283
3420,46288812.51597283
3738,6791184.0
2,8, 1, 8, 0,12, 0.00,60.00,Sunday
135,49398868.608437926
3420,49398868.60843792
3738,6791184.0
2,8, 1, 8, 0,13, 0.00,60.00,Sunday
135,54186789.29883888
3420,54186789.29883888
3738,6791184.0
2,8, 1, 8, 0,14, 0.00,60.00,Sunday
135,53619693.4366948
3420,53619693.436694816
3738,6791184.0
2,8, 1, 8, 0,15, 0.00,60.00,Sunday
135,54184097.19356303
3420,54184097.19356302
3738,6791184.0
2,8, 1, 8, 0,16, 0.00,60.00,Sunday
135,53411972.423246205
3420,53411972.423246205
3738,6791184.0
2,8, 1, 8, 0,17, 0.00,60.00,Sunday
135,48266667.33729489
3420,48266667.33729489
3738,6791184.0
2,8, 1, 8, 0,18, 0.00,60.00,Sunday
135,66276671.30593526
3420,66276671.30593526
3738,6791184.0
2,8, 1, 8, 0,19, 0.00,60.00,Sunday
135,57105773.81922845
3420,57105773.81922844
3738,6791184.0
2,8, 1, 8, 0,20, 0.00,60.00,Sunday
135,48904615.70955593
3420,48904615.70955593
3738,6791184.0
2,8, 1, 8, 0,21, 0.00,60.00,Sunday
135,48904615.70955593
3420,48904615.70955593
3738,6791184.0
2,8, 1, 8, 0,22, 0.00,60.00,Sunday
135,48904615.70955593
3420,48904615.70955593
3738,6791184.0
2,8, 1, 8, 0,23, 0.00,60.00,Sunday
135,48904615.70955593
3420,48904615.70955593
3738,6791184.0
2,8, 1, 8, 0,24, 0.00,60.00,Sunday
135,48904615.70955593
3420,48904615.70955593
3738,6791184.0
2,9, 1, 9, 0, 1, 0.00,60.00,Monday
135,57609860.1137362
3420,57609860.1137362
3738,6791184.0
2,9, 1, 9, 0, 2, 0.00,60.00,Monday
135,57609860.1137362
3420,57609860.1137362
3738,6791184.0
2,9, 1, 9, 0, 3, 0.00,60.00,Monday
135,57609860.1137362
3420,57609860.1137362
3738,6791184.0
2,9, 1, 9, 0, 4, 0.00,60.00,Monday
135,57609860.1137362
3420,57609860.1137362
3738,6791184.0
2,9, 1, 9, 0, 5, 0.00,60.00,Monday
135,57609860.1137362
3420,57609860.1137362
3738,6791184.0
2,9, 1, 9, 0, 6, 0.00,60.00,Monday
135,57609860.1137362
3420,57609860.1137362
3738,6791184.0
2,9, 1, 9, 0, 7, 0.00,60.00,Monday
135,139959815.76122338
3420,139959815.76122335
3738,6791184.0
2,9, 1, 9, 0, 8, 0.00,60.00,Monday
135,233919158.85638174
3420,233919158.8563817
3738,139407697.69914484
2,9, 1, 9, 0, 9, 0.00,60.00,Monday
135,316150234.528533
3420,316150234.5285329
3738,86089904.85212725
2,9, 1, 9, 0,10, 0.00,60.00,Monday
135,272961111.67335254
3420,272961111.6733525
3738,61602100.35855523
2,9, 1, 9, 0,11, 0.00,60.00,Monday
135,266881004.4796194
3420,266881004.47961938
3738,27251395.856907114
2,9, 1, 9, 0,12, 0.00,60.00,Monday
135,285671905.1392709
3420,285671905.1392709
3738,21023382.422991842
2,9, 1, 9, 0,13, 0.00,60.00,Monday
135,288944394.13635725
3420,288944394.13635725
3738,31377020.592453744
2,9, 1, 9, 0,14, 0.00,60.00,Monday
135,303450776.38748753
3420,303450776.3874875
3738,26217050.53559691
2,9, 1, 9, 0,15, 0.00,60.00,Monday
135,296213907.94668275
3420,296213907.9466827
3738,20170875.91685856
2,9, 1, 9, 0,16, 0.00,60.00,Monday
135,303594827.5579909
3420,303594827.5579909
3738,15657175.841030037
2,9, 1, 9, 0,17, 0.00,60.00,Monday
135,314139025.10647905
3420,314139025.106479
3738,25337029.539144002
2,9, 1, 9, 0,18, 0.00,60.00,Monday
135,240561591.76849043
3420,240561591.76849043
3738,16219772.477578305
2,9, 1, 9, 0,19, 0.00,60.00,Monday
135,130970249.08370912
3420,130970249.08370912
3738,44122179.21461202
2,9, 1, 9, 0,20, 0.00,60.00,Monday
135,115517494.26434466
3420,115517494.26434468
3738,55113900.77321008
2,9, 1, 9, 0,21, 0.00,60.00,Monday
135,106835518.94824637
3420,106835518.94824637
3738,46451737.122352906
2,9, 1, 9, 0,22, 0.00,60.00,Monday
135,104586265.77850151
3420,104586265.77850151
3738,54173647.11642163
2,9, 1, 9, 0,23, 0.00,60.00,Monday
135,77772390.65670998
3420,77772390.65670998
3738,6791184.0
2,9, 1, 9, 0,24, 0.00,60.00,Monday
135,72442274.24247962
3420,72442274.24247962
3738,6791184.0
2,10, 1,10, 0, 1, 0.00,60.00,Tuesday
135,57996196.7332391
3420,57996196.7332391
3738,6791184.0
2,10, 1,10, 0, 2, 0.00,60.00,Tuesday
135,57609860.1137362
3420,57609860.1137362
3738,6791184.0
2,10, 1,10, 0, 3, 0.00,60.00,Tuesday
135,57609860.1137362
3420,57609860.1137362
3738,6791184.0
2,10, 1,10, 0, 4, 0.00,60.00,Tuesday
135,57609860.1137362
3420,57609860.1137362
3738,6791184.0
2,10, 1,10, 0, 5, 0.00,60.00,Tuesday
135,57609860.1137362
3420,57609860.1137362
3738,6791184.0
2,10, 1,10, 0, 6, 0.00,60.00,Tuesday
135,57609860.1137362
3420,57609860.1137362
3738,6791184.0
2,10, 1,10, 0, 7, 0.00,60.00,Tuesday
135,124920644.49711657
3420,124920644.49711654
3738,6791184.0
2,10, 1,10, 0, 8, 0.00,60.00,Tuesday
135,212112028.80812424
3420,212112028.80812424
3738,178772990.7533458
2,10, 1,10, 0, 9, 0.00,60.00,Tuesday
135,310455643.8874858
3420,310455643.8874858
3738,120755416.4346001
2,10, 1,10, 0,10, 0.00,60.00,Tuesday
135,267523761.1573912
3420,267523761.15739113
3738,104726838.14808813
2,10, 1,10, 0,11, 0.00,60.00,Tuesday
135,257741132.5377236
3420,257741132.5377236
3738,90829165.97976197
2,10, 1,10, 0,12, 0.00,60.00,Tuesday
135,266148907.1367865
3420,266148907.1367865
3738,99710699.82770132
2,10, 1,10, 0,13, 0.00,60.00,Tuesday
135,287563085.82253635
3420,287563085.82253635
3738,81769628.31957377
2,10, 1,10, 0,14, 0.00,60.00,Tuesday
135,281201894.1774645
3420,281201894.1774645
3738,64349636.03875877
2,10, 1,10, 0,15, 0.00,60.00,Tuesday
135,271522954.13370985
3420,271522954.1337098
3738,23051023.440924548
2,10, 1,10, 0,16, 0.00,60.00,Tuesday
135,274513049.4736748
3420,274513049.4736748
3738,17723144.49532392
2,10, 1,10, 0,17, 0.00,60.00,Tuesday
135,286219489.4538527
3420,286219489.45385265
3738,36277165.37517266
2,10, 1,10, 0,18, 0.00,60.00,Tuesday
135,247270107.02249202
3420,247270107.02249202
3738,65131187.262194924
2,10, 1,10, 0,19, 0.00,60.00,Tuesday
135,133389438.63650814
3420,133389438.63650812
3738,122305446.37297359
2,10, 1,10, 0,20, 0.00,60.00,Tuesday
135,119134162.04633838
3420,119134162.04633838
3738,125242291.97365756
2,10, 1,10, 0,21, 0.00,60.00,Tuesday
135,111471145.57634977
3420,111471145.57634978
3738,135015390.38006437
2,10, 1,10, 0,22, 0.00,60.00,Tuesday
135,113485375.64322239
3420,113485375.6432224
3738,150140344.05612153
2,10, 1,10, 0,23, 0.00,60.00,Tuesday
135,77772390.65670998
3420,77772390.65670998
3738,6791184.0
2,10, 1,10, 0,24, 0.00,60.00,Tuesday
135,72442274.24247962
3420,72442274.24247962
3738,6791184.0
2,11, 1,11, 0, 1, 0.00,60.00,Wednesday
135,57996196.7332391
3420,57996196.7332391
3738,6791184.0
2,11, 1,11, 0, 2, 0.00,60.00,Wednesday
135,57609860.1137362
3420,57609860.1137362
3738,6791184.0
2,11, 1,11, 0, 3, 0.00,60.00,Wednesday
135,57609860.1137362
3420,57609860.1137362
3738,6791184.0
2,11, 1,11, 0, 4, 0.00,60.00,Wednesday
135,57609860.1137362
3420,57609860.1137362
3738,6791184.0
2,11, 1,11, 0, 5, 0.00,60.00,Wednesday
135,57609860.1137362
3420,57609860.1137362
3738,6791184.0
2,11, 1,11, 0, 6, 0.00,60.00,Wednesday
135,57609860.1137362
3420,57609860.1137362
3738,6791184.0
2,11, 1,11, 0, 7, 0.00,60.00,Wednesday
135,138265042.9913092
3420,138265042.99130917
3738,6791184.0
2,11, 1,11, 0, 8, 0.00,60.00,Wednesday
135,220678567.7378525
3420,220678567.7378525
3738,147347767.13415387
2,11, 1,11, 0, 9, 0.00,60.00,Wednesday
135,316420581.7735031
3420,316420581.7735032
3738,98800659.2969385
2,11, 1,11, 0,10, 0.00,60.00,Wednesday
135,270750747.2521748
3420,270750747.25217474
3738,91714148.95956202
2,11, 1,11, 0,11, 0.00,60.00,Wednesday
135,260844120.76504105
3420,260844120.76504105
3738,67005965.289900765
2,11, 1,11, 0,12, 0.00,60.00,Wednesday
135,271223181.79933983
3420,271223181.79933983
3738,75948160.3354522
2,11, 1,11, 0,13, 0.00,60.00,Wednesday
135,288617143.77397996
3420,288617143.77397996
3738,85334106.68384825
2,11, 1,11, 0,14, 0.00,60.00,Wednesday
135,279132392.54259086
3420,279132392.54259086
3738,75650217.72922626
2,11, 1,11, 0,15, 0.00,60.00,Wednesday
135,263534543.05470333
3420,263534543.0547033
3738,66170265.82611657
2,11, 1,11, 0,16, 0.00,60.00,Wednesday
135,262214603.52264386
3420,262214603.52264386
3738,74277340.74361935
2,11, 1,11, 0,17, 0.00,60.00,Wednesday
135,278981139.45288587
3420,278981139.45288587
3738,100504483.6733469
2,11, 1,11, 0,18, 0.00,60.00,Wednesday
135,242458710.8092697
3420,242458710.80926967
3738,100365902.16898078
2,11, 1,11, 0,19, 0.00,60.00,Wednesday
135,145597557.9130982
3420,145597557.91309822
3738,150481538.54245746
2,11, 1,11, 0,20, 0.00,60.00,Wednesday
135,125404989.39594278
3420,125404989.39594278
3738,156724925.09365168
2,11, 1,11, 0,21, 0.00,60.00,Wednesday
135,121255777.04322812
3420,121255777.0432281
3738,155078686.68079054
2,11, 1,11, 0,22, 0.00,60.00,Wednesday
135,122093660.80094957
3420,122093660.80094959
3738,167754449.80440587
2,11, 1,11, 0,23, 0.00,60.00,Wednesday
135,77772390.65670998
3420,77772390.65670998
3738,6791184.0
2,11, 1,11, 0,24, 0.00,60.00,Wednesday
135,72442274.24247962
3420,72442274.24247962
3738,6791184.0
2,12, 1,12, 0, 1, 0.00,60.00,Thursday
135,57996196.7332391
3420,57996196.7332391
3738,6791184.0
2,12, 1,12, 0, 2, 0.00,60.00,Thursday
135,57609860.1137362
3420,57609860.1137362
3738,6791184.0
2,12, 1,12, 0, 3, 0.00,60.00,Thursday
135,57609860.1137362
3420,57609860.1137362
3738,6791184.0
2,12, 1,12, 0, 4, 0.00,60.00,Thursday
135,57609860.1137362
3420,57609860.1137362
3738,6791184.0
2,12, 1,12, 0, 5, 0.00,60.00,Thursday
135,57609860.1137362
3420,57609860.1137362
3738,6791184.0
2,12, 1,12, 0, 6, 0.00,60.00,Thursday
135,57609860.1137362
3420,57609860.1137362
3738,6791184.0
2,12, 1,12, 0, 7, 0.00,60.00,Thursday
135,149302791.2894959
3420,149302791.2894959
3738,6791184.0
2,12, 1,12, 0, 8, 0.00,60.00,Thursday
135,232659948.2899863
3420,232659948.28998625
3738,194783160.67859703
2,12, 1,12, 0, 9, 0.00,60.00,Thursday
135,323488060.8657272
3420,323488060.8657272
3738,142150294.4297181
2,12, 1,12, 0,10, 0.00,60.00,Thursday
135,273437497.9995085
3420,273437497.9995085
3738,136313967.76612243
2,12, 1,12, 0,11, 0.00,60.00,Thursday
135,258797426.808118
3420,258797426.808118
3738,114310813.31904022
2,12, 1,12, 0,12, 0.00,60.00,Thursday
135,266048105.75392497
3420,266048105.75392497
3738,98083287.7537078
2,12, 1,12, 0,13, 0.00,60.00,Thursday
135,286503260.5186318
3420,286503260.5186318
3738,88703246.67360286
2,12, 1,12, 0,14, 0.00,60.00,Thursday
135,277257947.8657414
3420,277257947.8657414
3738,88777658.71947056
2,12, 1,12, 0,15, 0.00,60.00,Thursday
135,261799334.57642996
3420,261799334.57642996
3738,66307393.500654936
2,12, 1,12, 0,16, 0.00,60.00,Thursday
135,261578814.79489565
3420,261578814.7948956
3738,74829268.35555333
2,12, 1,12, 0,17, 0.00,60.00,Thursday
135,280124962.0179351
3420,280124962.0179351
3738,81346785.3591122
2,12, 1,12, 0,18, 0.00,60.00,Thursday
135,243517996.99005008
3420,243517996.9900501
3738,89954741.59951673
2,12, 1,12, 0,19, 0.00,60.00,Thursday
135,151092960.7218336
3420,151092960.7218336
3738,136771590.81523553
2,12, 1,12, 0,20, 0.00,60.00,Thursday
135,128648690.3604986
3420,128648690.3604986
3738,130576951.02959101
2,12, 1,12, 0,21, 0.00,60.00,Thursday
135,123403119.57093118
3420,123403119.5709312
3738,132811631.00724085
2,12, 1,12, 0,22, 0.00,60.00,Thursday
135,122888310.42387398
3420,122888310.42387399
3738,136425197.78294355
2,12, 1,12, 0,23, 0.00,60.00,Thursday
135,77772390.65670998
3420,77772390.65670998
3738,6791184.0
2,12, 1,12, 0,24, 0.00,60.00,Thursday
135,72442274.24247962
3420,72442274.24247962
3738,6791184.0
2,13, 1,13, 0, 1, 0.00,60.00,Friday
135,57996196.7332391
3420,57996196.7332391
3738,6791184.0