Program Version,EnergyPlus, Version 9.6.0-f420c06a69, YMD=2022.07.06 16:46
1,5,Environment Title[],Latitude[deg],Longitude[deg],Time Zone[],Elevation[m]
2,8,Day of Simulation[],Month[],Day of Month[],DST Indicator[1=yes 0=no],Hour[],StartMinute[],EndMinute[],DayType
3,5,Cumulative Day of Simulation[],Month[],Day of Month[],DST Indicator[1=yes 0=no],DayType  ! When Daily Meters Requested
4,2,Cumulative Days of Simulation[],Month[]  ! When Monthly Meters Requested
5,1,Cumulative Days of Simulation[] ! When Run Period Meters Requested
6,1,Calendar Year of Simulation[] ! When Annual Meters Requested
135,1,Electricity:Facility [J] !Hourly
3420,1,ElectricityNet:Facility [J] !Hourly
3738,1,NaturalGas:Facility [J] !Hourly
End of Data Dictionary
1,RUNPERIOD 1,  35.04,-106.62,  -7.00,1619.00
2,1, 1, 1, 0, 1, 0.00,60.00,Holiday
135,46359074.93593144
3420,46359074.93593143
3738,6791184.0
2,1, 1, 1, 0, 2, 0.00,60.00,Holiday
135,46359235.70955593
3420,46359235.709555924
3738,6791184.0
2,1, 1, 1, 0, 3, 0.00,60.00,Holiday
135,46359235.70955593
3420,46359235.709555924
3738,6791184.0
2,1, 1, 1, 0, 4, 0.00,60.00,Holiday
135,46359235.70955593
3420,46359235.709555924
3738,6791184.0
2,1, 1, 1, 0, 5, 0.00,60.00,Holiday
135,46359235.70955593
3420,46359235.709555924
3738,6791184.0
2,1, 1, 1, 0, 6, 0.00,60.00,Holiday
135,46359235.70955593
3420,46359235.709555924
3738,6791184.0
2,1, 1, 1, 0, 7, 0.00,60.00,Holiday
135,66032185.73006148
3420,66032185.73006148
3738,6791184.0
2,1, 1, 1, 0, 8, 0.00,60.00,Holiday
135,50074623.774579875
3420,50074623.774579875
3738,6791184.0
2,1, 1, 1, 0, 9, 0.00,60.00,Holiday
135,46351708.9331394
3420,46351708.9331394
3738,6791184.0
2,1, 1, 1, 0,10, 0.00,60.00,Holiday
135,46288813.17904917
3420,46288813.179049164
3738,6791184.0
2,1, 1, 1, 0,11, 0.00,60.00,Holiday
135,50556028.58634514
3420,50556028.58634514
3738,6791184.0
2,1, 1, 1, 0,12, 0.00,60.00,Holiday
135,53620061.07971074
3420,53620061.07971075
3738,6791184.0
2,1, 1, 1, 0,13, 0.00,60.00,Holiday
135,54251377.4482968
3420,54251377.44829681
3738,6791184.0
2,1, 1, 1, 0,14, 0.00,60.00,Holiday
135,58744815.664830714
3420,58744815.66483073
3738,6791184.0
2,1, 1, 1, 0,15, 0.00,60.00,Holiday
135,64652365.25448359
3420,64652365.25448359
3738,6791184.0
2,1, 1, 1, 0,16, 0.00,60.00,Holiday
135,62671968.53224909
3420,62671968.53224909
3738,6791184.0
2,1, 1, 1, 0,17, 0.00,60.00,Holiday
135,54610940.42094375
3420,54610940.42094375
3738,6791184.0
2,1, 1, 1, 0,18, 0.00,60.00,Holiday
135,66905826.86107348
3420,66905826.86107348
3738,6791184.0
2,1, 1, 1, 0,19, 0.00,60.00,Holiday
135,57105773.81922845
3420,57105773.81922844
3738,6791184.0
2,1, 1, 1, 0,20, 0.00,60.00,Holiday
135,48904615.70955593
3420,48904615.70955593
3738,6791184.0
2,1, 1, 1, 0,21, 0.00,60.00,Holiday
135,48904615.70955593
3420,48904615.70955593
3738,6791184.0
2,1, 1, 1, 0,22, 0.00,60.00,Holiday
135,48904615.70955593
3420,48904615.70955593
3738,6791184.0
2,1, 1, 1, 0,23, 0.00,60.00,Holiday
135,48904615.70955593
3420,48904615.70955593
3738,6791184.0
2,1, 1, 1, 0,24, 0.00,60.00,Holiday
135,48904615.70955593
3420,48904615.70955593
3738,6791184.0
2,2, 1, 2, 0, 1, 0.00,60.00,Monday
135,57609860.1137362
3420,57609860.1137362
3738,6791184.0
2,2, 1, 2, 0, 2, 0.00,60.00,Monday
135,57609860.1137362
3420,57609860.1137362
3738,6791184.0
2,2, 1, 2, 0, 3, 0.00,60.00,Monday
135,57609860.1137362
3420,57609860.1137362
3738,6791184.0
2,2, 1, 2, 0, 4, 0.00,60.00,Monday
135,57609860.1137362
3420,57609860.1137362
3738,6791184.0
2,2, 1, 2, 0, 5, 0.00,60.00,Monday
135,57609860.1137362
3420,57609860.1137362
3738,6791184.0
2,2, 1, 2, 0, 6, 0.00,60.00,Monday
135,57609860.1137362
3420,57609860.1137362
3738,6791184.0
2,2, 1, 2, 0, 7, 0.00,60.00,Monday
135,134878218.9732619
3420,134878218.97326186
3738,6791184.0
2,2, 1, 2, 0, 8, 0.00,60.00,Monday
135,224447349.34681612
3420,224447349.34681612
3738,144051788.3317502
2,2, 1, 2, 0, 9, 0.00,60.00,Monday
135,310113173.5226268
3420,310113173.52262676
3738,88876839.65152809
2,2, 1, 2, 0,10, 0.00,60.00,Monday
135,271365063.6523837
3420,271365063.6523836
3738,60265923.85270449
2,2, 1, 2, 0,11, 0.00,60.00,Monday
135,268042805.41555253
3420,268042805.41555253
3738,22324186.92765486
2,2, 1, 2, 0,12, 0.00,60.00,Monday
135,288256589.4717232
3420,288256589.4717232
3738,20876794.54329522
2,2, 1, 2, 0,13, 0.00,60.00,Monday
135,289626908.83261126
3420,289626908.83261126
3738,31334423.78333511
2,2, 1, 2, 0,14, 0.00,60.00,Monday
135,304560312.7598077
3420,304560312.75980777
3738,26165958.14784857
2,2, 1, 2, 0,15, 0.00,60.00,Monday
135,297207055.59561163
3420,297207055.5956117
3738,16649506.089210246
2,2, 1, 2, 0,16, 0.00,60.00,Monday
135,301765850.1485542
3420,301765850.1485542
3738,19089949.697671723
2,2, 1, 2, 0,17, 0.00,60.00,Monday
135,300883689.7626623
3420,300883689.7626623
3738,20696611.81849547
2,2, 1, 2, 0,18, 0.00,60.00,Monday
135,237763786.45298475
3420,237763786.45298478
3738,22828722.127478585
2,2, 1, 2, 0,19, 0.00,60.00,Monday
135,131185250.1779861
3420,131185250.1779861
3738,54000351.72755138
2,2, 1, 2, 0,20, 0.00,60.00,Monday
135,115788227.31176195
3420,115788227.31176195
3738,68630236.21559957
2,2, 1, 2, 0,21, 0.00,60.00,Monday
135,107180701.07736793
3420,107180701.07736793
3738,80740475.22169581
2,2, 1, 2, 0,22, 0.00,60.00,Monday
135,104935694.04120313
3420,104935694.04120316
3738,82360406.46165311
2,2, 1, 2, 0,23, 0.00,60.00,Monday
135,77772390.65670998
3420,77772390.65670998
3738,6791184.0
2,2, 1, 2, 0,24, 0.00,60.00,Monday
135,72442274.24247962
3420,72442274.24247962
3738,6791184.0
2,3, 1, 3, 0, 1, 0.00,60.00,Tuesday
135,57996196.7332391
3420,57996196.7332391
3738,6791184.0
2,3, 1, 3, 0, 2, 0.00,60.00,Tuesday
135,57609860.1137362
3420,57609860.1137362
3738,6791184.0
2,3, 1, 3, 0, 3, 0.00,60.00,Tuesday
135,57609860.1137362
3420,57609860.1137362
3738,6791184.0
2,3, 1, 3, 0, 4, 0.00,60.00,Tuesday
135,57609860.1137362
3420,57609860.1137362
3738,6791184.0
2,3, 1, 3, 0, 5, 0.00,60.00,Tuesday
135,57609860.1137362
3420,57609860.1137362
3738,6791184.0
2,3, 1, 3, 0, 6, 0.00,60.00,Tuesday
135,57609860.1137362
3420,57609860.1137362
3738,6791184.0
2,3, 1, 3, 0, 7, 0.00,60.00,Tuesday
135,110246891.9321736
3420,110246891.9321736
3738,6791184.0
2,3, 1, 3, 0, 8, 0.00,60.00,Tuesday
135,189787777.19002396
3420,189787777.19002393
3738,127893569.43827754
2,3, 1, 3, 0, 9, 0.00,60.00,Tuesday
135,311735474.6462774
3420,311735474.64627737
3738,74048611.90492582
2,3, 1, 3, 0,10, 0.00,60.00,Tuesday
135,277285498.1859546
3420,277285498.1859546
3738,33473696.454957783
2,3, 1, 3, 0,11, 0.00,60.00,Tuesday
135,276669119.4453627
3420,276669119.44536257
3738,11005409.7709702
2,3, 1, 3, 0,12, 0.00,60.00,Tuesday
135,294510040.65947235
3420,294510040.65947235
3738,23274910.85150368
2,3, 1, 3, 0,13, 0.00,60.00,Tuesday
135,296008760.87337774
3420,296008760.87337774
3738,31313196.53816751
2,3, 1, 3, 0,14, 0.00,60.00,Tuesday
135,312459596.2197046
3420,312459596.2197046
3738,26179341.570204668
2,3, 1, 3, 0,15, 0.00,60.00,Tuesday
135,300132587.72396576
3420,300132587.72396576
3738,20134709.813017763
2,3, 1, 3, 0,16, 0.00,60.00,Tuesday
135,303905456.6083193
3420,303905456.6083192
3738,15642458.513267582
2,3, 1, 3, 0,17, 0.00,60.00,Tuesday
135,306143708.642809
3420,306143708.6428089
3738,20958292.106283188
2,3, 1, 3, 0,18, 0.00,60.00,Tuesday
135,241887659.15678734
3420,241887659.15678728
3738,17408500.555825397
2,3, 1, 3, 0,19, 0.00,60.00,Tuesday
135,131936317.85543132
3420,131936317.85543132
3738,31714708.765812345
2,3, 1, 3, 0,20, 0.00,60.00,Tuesday
135,113569604.38930234
3420,113569604.38930234
3738,51650092.05562477
2,3, 1, 3, 0,21, 0.00,60.00,Tuesday
135,102910895.06207252
3420,102910895.06207252
3738,60710470.68437332
2,3, 1, 3, 0,22, 0.00,60.00,Tuesday
135,99700727.8095243
3420,99700727.80952433
3738,89792459.07201333
2,3, 1, 3, 0,23, 0.00,60.00,Tuesday
135,77772390.65670998
3420,77772390.65670998
3738,6791184.0
2,3, 1, 3, 0,24, 0.00,60.00,Tuesday
135,72442274.24247962
3420,72442274.24247962
3738,6791184.0
2,4, 1, 4, 0, 1, 0.00,60.00,Wednesday
135,57996196.7332391
3420,57996196.7332391
3738,6791184.0
2,4, 1, 4, 0, 2, 0.00,60.00,Wednesday
135,57609860.1137362
3420,57609860.1137362
3738,6791184.0
2,4, 1, 4, 0, 3, 0.00,60.00,Wednesday
135,57609860.1137362
3420,57609860.1137362
3738,6791184.0
2,4, 1, 4, 0, 4, 0.00,60.00,Wednesday
135,57609860.1137362
3420,57609860.1137362
3738,6791184.0
2,4, 1, 4, 0, 5, 0.00,60.00,Wednesday
135,57609860.1137362
3420,57609860.1137362
3738,6791184.0
2,4, 1, 4, 0, 6, 0.00,60.00,Wednesday
135,57609860.1137362
3420,57609860.1137362
3738,6791184.0
2,4, 1, 4, 0, 7, 0.00,60.00,Wednesday
135,106404852.69745946
3420,106404852.69745946
3738,6791184.0
2,4, 1, 4, 0, 8, 0.00,60.00,Wednesday
135,188565720.77044547
3420,188565720.77044547
3738,148199627.5746022
2,4, 1, 4, 0, 9, 0.00,60.00,Wednesday
135,309354701.0787325
3420,309354701.07873243
3738,87295595.8595211
2,4, 1, 4, 0,10, 0.00,60.00,Wednesday
135,271026351.7007154
3420,271026351.7007154
3738,59254591.49081121
2,4, 1, 4, 0,11, 0.00,60.00,Wednesday
135,265318671.5172772
3420,265318671.51727718
3738,39948447.48624557
2,4, 1, 4, 0,12, 0.00,60.00,Wednesday
135,279645244.1066742
3420,279645244.1066742
3738,25541763.37515947
2,4, 1, 4, 0,13, 0.00,60.00,Wednesday
135,285036500.36897314
3420,285036500.36897314
3738,31353602.7696282
2,4, 1, 4, 0,14, 0.00,60.00,Wednesday
135,290685247.22720414
3420,290685247.2272042
3738,26188331.40128117
2,4, 1, 4, 0,15, 0.00,60.00,Wednesday
135,275869938.016961
3420,275869938.016961
3738,20161876.077216543
2,4, 1, 4, 0,16, 0.00,60.00,Wednesday
135,275561594.01921284
3420,275561594.01921284
3738,15652007.014608864
2,4, 1, 4, 0,17, 0.00,60.00,Wednesday
135,295050112.0482503
3420,295050112.0482503
3738,25318932.60453754
2,4, 1, 4, 0,18, 0.00,60.00,Wednesday
135,250937232.52106398
3420,250937232.521064
3738,18172635.687563766
2,4, 1, 4, 0,19, 0.00,60.00,Wednesday
135,131963474.08535361
3420,131963474.08535364
3738,34092719.66975884
2,4, 1, 4, 0,20, 0.00,60.00,Wednesday
135,113569604.38930234
3420,113569604.38930234
3738,48641009.18389044
2,4, 1, 4, 0,21, 0.00,60.00,Wednesday
135,102910895.06207252
3420,102910895.06207252
3738,62017398.94849987
2,4, 1, 4, 0,22, 0.00,60.00,Wednesday
135,98643202.27409184
3420,98643202.27409185
3738,73472639.48549943
2,4, 1, 4, 0,23, 0.00,60.00,Wednesday
135,77772390.65670998
3420,77772390.65670998
3738,6791184.0
2,4, 1, 4, 0,24, 0.00,60.00,Wednesday
135,72442274.24247962
3420,72442274.24247962
3738,6791184.0
2,5, 1, 5, 0, 1, 0.00,60.00,Thursday
135,57996196.7332391
3420,57996196.7332391
3738,6791184.0
2,5, 1, 5, 0, 2, 0.00,60.00,Thursday
135,57609860.1137362
3420,57609860.1137362
3738,6791184.0
2,5, 1, 5, 0, 3, 0.00,60.00,Thursday
135,57609860.1137362
3420,57609860.1137362
3738,6791184.0
2,5, 1, 5, 0, 4, 0.00,60.00,Thursday
135,57609860.1137362
3420,57609860.1137362
3738,6791184.0
2,5, 1, 5, 0, 5, 0.00,60.00,Thursday
135,57609860.1137362
3420,57609860.1137362
3738,6791184.0
2,5, 1, 5, 0, 6, 0.00,60.00,Thursday
135,57609860.1137362
3420,57609860.1137362
3738,6791184.0
2,5, 1, 5, 0, 7, 0.00,60.00,Thursday
135,99605482.22971714
3420,99605482.22971717
3738,6791184.0
2,5, 1, 5, 0, 8, 0.00,60.00,Thursday
135,176848803.66143382
3420,176848803.66143382
3738,118918519.20036617
2,5, 1, 5, 0, 9, 0.00,60.00,Thursday
135,310410716.45027816
3420,310410716.45027816
3738,63718647.53624899
2,5, 1, 5, 0,10, 0.00,60.00,Thursday
135,279145913.06611407
3420,279145913.06611407
3738,18769758.24929616
2,5, 1, 5, 0,11, 0.00,60.00,Thursday
135,278477659.7647417
3420,278477659.76474166
3738,11332778.247828975
2,5, 1, 5, 0,12, 0.00,60.00,Thursday
135,291018123.9829017
3420,291018123.9829017
3738,20890680.988424744
2,5, 1, 5, 0,13, 0.00,60.00,Thursday
135,291884732.64979345
3420,291884732.6497935
3738,31320938.161408074
2,5, 1, 5, 0,14, 0.00,60.00,Thursday
135,309772895.40179133
3420,309772895.40179133
3738,26189110.329723567
2,5, 1, 5, 0,15, 0.00,60.00,Thursday
135,294132433.84919196
3420,294132433.8491919
3738,20204411.69625397
2,5, 1, 5, 0,16, 0.00,60.00,Thursday
135,294803106.39138657
3420,294803106.3913865
3738,15641762.176940164
2,5, 1, 5, 0,17, 0.00,60.00,Thursday
135,308156401.1318622
3420,308156401.13186216
3738,25321980.554415427
2,5, 1, 5, 0,18, 0.00,60.00,Thursday
135,250286275.90177798
3420,250286275.90177798
3738,36647023.285372764
2,5, 1, 5, 0,19, 0.00,60.00,Thursday
135,131059544.10489376
3420,131059544.10489376
3738,90961718.7186139
2,5, 1, 5, 0,20, 0.00,60.00,Thursday
135,113613844.69563454
3420,113613844.69563454
3738,130581398.22487085
2,5, 1, 5, 0,21, 0.00,60.00,Thursday
135,105268575.39401188
3420,105268575.39401191
3738,152564278.21734542
2,5, 1, 5, 0,22, 0.00,60.00,Thursday
135,106404837.80237822
3420,106404837.80237822
3738,172759629.67104912
2,5, 1, 5, 0,23, 0.00,60.00,Thursday
135,77772390.65670998
3420,77772390.65670998
3738,6791184.0
2,5, 1, 5, 0,24, 0.00,60.00,Thursday
135,72442274.24247962
3420,72442274.24247962
3738,6791184.0
2,6, 1, 6, 0, 1, 0.00,60.00,Friday
135,57996196.7332391
3420,57996196.7332391
3738,6791184.0
2,6, 1, 6, 0, 2, 0.00,60.00,Friday
135,57609860.1137362
3420,57609860.1137362
3738,6791184.0
2,6, 1, 6, 0, 3, 0.00,60.00,Friday
135,57609860.1137362
3420,57609860.1137362
3738,6791184.0
2,6, 1, 6, 0, 4, 0.00,60.00,Friday
135,57609860.1137362
3420,57609860.1137362
3738,6791184.0
2,6, 1, 6, 0, 5, 0.00,60.00,Friday
135,57609860.1137362
3420,57609860.1137362
3738,6791184.0
2,6, 1, 6, 0, 6, 0.00,60.00,Friday
135,57609860.1137362
3420,57609860.1137362
3738,6791184.0
2,6, 1, 6, 0, 7, 0.00,60.00,Friday
135,138522020.3776106
3420,138522020.3776106
3738,6791184.0
2,6, 1, 6, 0, 8, 0.00,60.00,Friday
135,235382514.69442216
3420,235382514.69442216
3738,203449392.51272053
2,6, 1, 6, 0, 9, 0.00,60.00,Friday
135,335165465.51763064
3420,335165465.5176307
3738,141795598.01540798
2,6, 1, 6, 0,10, 0.00,60.00,Friday
135,281174768.49726117
3420,281174768.49726117
3738,128160536.49929672
2,6, 1, 6, 0,11, 0.00,60.00,Friday
135,262150858.10836983
3420,262150858.10836977
3738,101996166.58877663
2,6, 1, 6, 0,12, 0.00,60.00,Friday
135,273128804.1305663
3420,273128804.1305663
3738,70501376.62195197
2,6, 1, 6, 0,13, 0.00,60.00,Friday
135,284420187.9826536
3420,284420187.98265356
3738,32552985.415107504
2,6, 1, 6, 0,14, 0.00,60.00,Friday
135,294657288.1247444
3420,294657288.1247444
3738,27740097.35150988
2,6, 1, 6, 0,15, 0.00,60.00,Friday
135,283405360.15769094
3420,283405360.15769094
3738,18750863.171869554
2,6, 1, 6, 0,16, 0.00,60.00,Friday
135,285446392.05555016
3420,285446392.0555501
3738,15647440.67919689
2,6, 1, 6, 0,17, 0.00,60.00,Friday
135,296744048.4315957
3420,296744048.4315957
3738,27515316.294445876
2,6, 1, 6, 0,18, 0.00,60.00,Friday
135,249631898.11639282
3420,249631898.11639285
3738,56969448.76078105
2,6, 1, 6, 0,19, 0.00,60.00,Friday
135,131864301.35807222
3420,131864301.35807222
3738,86100618.46675584
2,6, 1, 6, 0,20, 0.00,60.00,Friday
135,116934690.89514065
3420,116934690.89514065
3738,89801626.17348391
2,6, 1, 6, 0,21, 0.00,60.00,Friday
135,109499386.05841938
3420,109499386.05841938
3738,107830408.6799126
2,6, 1, 6, 0,22, 0.00,60.00,Friday
135,106975826.33090344
3420,106975826.33090344
3738,107108670.08714151
2,6, 1, 6, 0,23, 0.00,60.00,Friday
135,77772390.65670998
3420,77772390.65670998
3738,6791184.0
2,6, 1, 6, 0,24, 0.00,60.00,Friday
135,72442274.24247962
3420,72442274.24247962
3738,6791184.0
2,7, 1, 7, 0, 1, 0.00,60.00,Saturday
135,46745513.81922844
3420,46745513.81922843
3738,6791184.0
2,7, 1, 7, 0, 2, 0.00,60.00,Saturday
135,46359235.70955593
3420,46359235.709555924
3738,6791184.0
2,7, 1, 7, 0, 3, 0.00,60.00,Saturday
135,46359235.70955593
3420,46359235.709555924
3738,6791184.0
2,7, 1, 7, 0, 4, 0.00,60.00,Saturday
135,46359235.70955593
3420,46359235.709555924
3738,6791184.0
2,7, 1, 7, 0, 5, 0.00,60.00,Saturday
135,46359235.70955593
3420,46359235.709555924
3738,6791184.0
2,7, 1, 7, 0, 6, 0.00,60.00,Saturday
135,46359235.70955593
3420,46359235.709555924
3738,6791184.0
2,7, 1, 7, 0, 7, 0.00,60.00,Saturday
135,120519297.53325371
3420,120519297.53325371
3738,6791184.0
2,7, 1, 7, 0, 8, 0.00,60.00,Saturday
135,159586991.29844108
3420,159586991.29844108
3738,137323154.47988528
2,7, 1, 7, 0, 9, 0.00,60.00,Saturday
135,140889439.96477723
3420,140889439.96477723
3738,120199399.2835712
2,7, 1, 7, 0,10, 0.00,60.00,Saturday
135,139462121.81887037
3420,139462121.81887037
3738,106645991.52353553
2,7, 1, 7, 0,11, 0.00,60.00,Saturday
135,130373146.85327113
3420,130373146.85327113
3738,78519667.8293533
2,7, 1, 7, 0,12, 0.00,60.00,Saturday
135,137311708.78681284
3420,137311708.78681284
3738,38424991.327593654
2,7, 1, 7, 0,13, 0.00,60.00,Saturday
135,96710302.79293264
3420,96710302.79293264
3738,24270827.71841213
2,7, 1, 7, 0,14, 0.00,60.00,Saturday
135,86580571.2954265
3420,86580571.2954265
3738,25894255.052052073
2,7, 1, 7, 0,15, 0.00,60.00,Saturday
135,80777988.06353001
3420,80777988.06353001
3738,23324761.998457897
2,7, 1, 7, 0,16, 0.00,60.00,Saturday
135,77024966.02747597
3420,77024966.02747598
3738,31304999.009769786
2,7, 1, 7, 0,17, 0.00,60.00,Saturday
135,80834326.16676886
3420,80834326.16676888
3738,39913949.77033878
2,7, 1, 7, 0,18, 0.00,60.00,Saturday
135,83077160.33306564
3420,83077160.33306564
3738,53166583.754558176
2,7, 1, 7, 0,19, 0.00,60.00,Saturday
135,66276703.53612528
3420,66276703.53612528
3738,6791184.0
2,7, 1, 7, 0,20, 0.00,60.00,Saturday
135,49290893.81922844
3420,49290893.81922844
3738,6791184.0
2,7, 1, 7, 0,21, 0.00,60.00,Saturday
135,48904615.70955593
3420,48904615.70955593
3738,6791184.0
2,7, 1, 7, 0,22, 0.00,60.00,Saturday
135,48904615.70955593
3420,48904615.70955593
3738,6791184.0
2,7, 1, 7, 0,23, 0.00,60.00,Saturday
135,48904615.70955593
3420,48904615.70955593
3738,6791184.0
2,7, 1, 7, 0,24, 0.00,60.00,Saturday
135,48904615.70955593
3420,48904615.70955593
3738,6791184.0
2,8, 1, 8, 0, 1, 0.00,60.00,Sunday
135,46359235.70955593
3420,46359235.709555924
3738,6791184.0
2,8, 1, 8, 0, 2, 0.00,60.00,Sunday
135,46359235.70955593
3420,46359235.709555924
3738,6791184.0
2,8, 1, 8, 0, 3, 0.00,60.00,Sunday
135,46359235.70955593
3420,46359235.709555924
3738,6791184.0
2,8, 1, 8, 0, 4, 0.00,60.00,Sunday
135,46359235.70955593
3420,46359235.709555924
3738,6791184.0
2,8, 1, 8, 0, 5, 0.00,60.00,Sunday
135,46359235.70955593
3420,46359235.709555924
3738,6791184.0
2,8, 1, 8, 0, 6, 0.00,60.00,Sunday
135,46359235.70955593
3420,46359235.709555924
3738,6791184.0
2,8, 1, 8, 0, 7, 0.00,60.00,Sunday
135,66032185.73006148
3420,66032185.73006148
3738,6791184.0
2,8, 1, 8, 0, 8, 0.00,60.00,Sunday
135,53323580.330645084
3420,53323580.330645084
3738,6791184.0
2,8, 1, 8, 0, 9, 0.00,60.00,Sunday
135,46344166.24829911
3420,46344166.24829911
3738,6791184.0
2,8, 1, 8, 0,10, 0.00,60.00,Sunday
135,46288812.51597283
3420,46288812.51597283
3738,6791184.0
2,8, 1, 8, 0,11, 0.00,60.00,Sunday
135,46769253.394477256
3420,46769253.394477256
3738,6791184.0
2,8, 1, 8, 0,12, 0.00,60.00,Sunday
135,50551043.77409297
3420,50551043.77409297
3738,6791184.0
2,8, 1, 8, 0,13, 0.00,60.00,Sunday
135,53629860.01007275
3420,53629860.01007275
3738,6791184.0
2,8, 1, 8, 0,14, 0.00,60.00,Sunday
135,54241340.62405766
3420,54241340.62405765
3738,6791184.0
2,8, 1, 8, 0,15, 0.00,60.00,Sunday
135,53600127.67312041
3420,53600127.673120424
3738,6791184.0
2,8, 1, 8, 0,16, 0.00,60.00,Sunday
135,53807623.16249731
3420,53807623.16249731
3738,6791184.0
2,8, 1, 8, 0,17, 0.00,60.00,Sunday
135,49662984.72588514
3420,49662984.72588514
3738,6791184.0
2,8, 1, 8, 0,18, 0.00,60.00,Sunday
135,66276671.30593526
3420,66276671.30593526
3738,6791184.0
2,8, 1, 8, 0,19, 0.00,60.00,Sunday
135,57105773.81922845
3420,57105773.81922844
3738,6791184.0
2,8, 1, 8, 0,20, 0.00,60.00,Sunday
135,48904615.70955593
3420,48904615.70955593
3738,6791184.0
2,8, 1, 8, 0,21, 0.00,60.00,Sunday
135,48904615.70955593
3420,48904615.70955593
3738,6791184.0
2,8, 1, 8, 0,22, 0.00,60.00,Sunday
135,48904615.70955593
3420,48904615.70955593
3738,6791184.0
2,8, 1, 8, 0,23, 0.00,60.00,Sunday
135,48904615.70955593
3420,48904615.70955593
3738,6791184.0
2,8, 1, 8, 0,24, 0.00,60.00,Sunday
135,48904615.70955593
3420,48904615.70955593
3738,6791184.0
2,9, 1, 9, 0, 1, 0.00,60.00,Monday
135,57609860.1137362
3420,57609860.1137362
3738,6791184.0
2,9, 1, 9, 0, 2, 0.00,60.00,Monday
135,57609860.1137362
3420,57609860.1137362
3738,6791184.0
2,9, 1, 9, 0, 3, 0.00,60.00,Monday
135,57609860.1137362
3420,57609860.1137362
3738,6791184.0
2,9, 1, 9, 0, 4, 0.00,60.00,Monday
135,57609860.1137362
3420,57609860.1137362
3738,6791184.0
2,9, 1, 9, 0, 5, 0.00,60.00,Monday
135,57609860.1137362
3420,57609860.1137362
3738,6791184.0
2,9, 1, 9, 0, 6, 0.00,60.00,Monday
135,57609860.1137362
3420,57609860.1137362
3738,6791184.0
2,9, 1, 9, 0, 7, 0.00,60.00,Monday
135,135289231.75012296
3420,135289231.75012296
3738,6791184.0
2,9, 1, 9, 0, 8, 0.00,60.00,Monday
135,228041781.79996645
3420,228041781.79996642
3738,136118600.7184465
2,9, 1, 9, 0, 9, 0.00,60.00,Monday
135,315251263.9765316
3420,315251263.9765316
3738,82759616.55428235
2,9, 1, 9, 0,10, 0.00,60.00,Monday
135,273723778.0566441
3420,273723778.0566441
3738,58146300.27792463
2,9, 1, 9, 0,11, 0.00,60.00,Monday
135,268418811.39926147
3420,268418811.39926142
3738,23174709.454682034
2,9, 1, 9, 0,12, 0.00,60.00,Monday
135,285713739.3385018
3420,285713739.3385017
3738,20903852.63718526
2,9, 1, 9, 0,13, 0.00,60.00,Monday
135,284150721.08485156
3420,284150721.08485156
3738,31355573.71026162
2,9, 1, 9, 0,14, 0.00,60.00,Monday
135,296710758.91786593
3420,296710758.91786593
3738,26217230.975131042
2,9, 1, 9, 0,15, 0.00,60.00,Monday
135,290313428.7315788
3420,290313428.7315788
3738,20171200.51477667
2,9, 1, 9, 0,16, 0.00,60.00,Monday
135,298454244.15902936
3420,298454244.15902936
3738,15658048.59922407
2,9, 1, 9, 0,17, 0.00,60.00,Monday
135,308508656.10820675
3420,308508656.10820675
3738,25336616.219853275
2,9, 1, 9, 0,18, 0.00,60.00,Monday
135,240171226.72882512
3420,240171226.7288251
3738,12689845.717777714
2,9, 1, 9, 0,19, 0.00,60.00,Monday
135,131766086.44832098
3420,131766086.44832098
3738,32621311.958861843
2,9, 1, 9, 0,20, 0.00,60.00,Monday
135,114167656.74556436
3420,114167656.74556434
3738,41953423.735478744
2,9, 1, 9, 0,21, 0.00,60.00,Monday
135,105222304.52429053
3420,105222304.52429056
3738,31676505.06548248
2,9, 1, 9, 0,22, 0.00,60.00,Monday
135,102302271.5785853
3420,102302271.5785853
3738,38669895.01735362
2,9, 1, 9, 0,23, 0.00,60.00,Monday
135,77772390.65670998
3420,77772390.65670998
3738,6791184.0
2,9, 1, 9, 0,24, 0.00,60.00,Monday
135,72442274.24247962
3420,72442274.24247962
3738,6791184.0
2,10, 1,10, 0, 1, 0.00,60.00,Tuesday
135,57996196.7332391
3420,57996196.7332391
3738,6791184.0
2,10, 1,10, 0, 2, 0.00,60.00,Tuesday
135,57609860.1137362
3420,57609860.1137362
3738,6791184.0
2,10, 1,10, 0, 3, 0.00,60.00,Tuesday
135,57609860.1137362
3420,57609860.1137362
3738,6791184.0
2,10, 1,10, 0, 4, 0.00,60.00,Tuesday
135,57609860.1137362
3420,57609860.1137362
3738,6791184.0
2,10, 1,10, 0, 5, 0.00,60.00,Tuesday
135,57609860.1137362
3420,57609860.1137362
3738,6791184.0
2,10, 1,10, 0, 6, 0.00,60.00,Tuesday
135,57609860.1137362
3420,57609860.1137362
3738,6791184.0
2,10, 1,10, 0, 7, 0.00,60.00,Tuesday
135,114701056.00146413
3420,114701056.00146413
3738,6791184.0
2,10, 1,10, 0, 8, 0.00,60.00,Tuesday
135,197978223.78894705
3420,197978223.78894705
3738,149334943.78835228
2,10, 1,10, 0, 9, 0.00,60.00,Tuesday
135,308128692.0645824
3420,308128692.0645824
3738,96116750.76202354
2,10, 1,10, 0,10, 0.00,60.00,Tuesday
135,268387195.72754157
3420,268387195.72754157
3738,74933458.22350647
2,10, 1,10, 0,11, 0.00,60.00,Tuesday
135,260742448.28136826
3420,260742448.2813682
3738,64701476.94886817
2,10, 1,10, 0,12, 0.00,60.00,Tuesday
135,270534745.0383941
3420,270534745.038394
3738,75515264.44088571
2,10, 1,10, 0,13, 0.00,60.00,Tuesday
135,289991309.96469045
3420,289991309.96469045
3738,58442407.72760176
2,10, 1,10, 0,14, 0.00,60.00,Tuesday
135,286481197.54765624
3420,286481197.54765624
3738,35789211.77863646
2,10, 1,10, 0,15, 0.00,60.00,Tuesday
135,278241224.36970156
3420,278241224.3697015
3738,15954086.685225008
2,10, 1,10, 0,16, 0.00,60.00,Tuesday
135,280443641.18275577
3420,280443641.1827557
3738,17582231.406592768
2,10, 1,10, 0,17, 0.00,60.00,Tuesday
135,292531833.4439032
3420,292531833.44390315
3738,23327938.12892466
2,10, 1,10, 0,18, 0.00,60.00,Tuesday
135,249718644.22119662
3420,249718644.2211966
3738,38511844.5470705
2,10, 1,10, 0,19, 0.00,60.00,Tuesday
135,130988644.30728483
3420,130988644.30728483
3738,78771791.39157599
2,10, 1,10, 0,20, 0.00,60.00,Tuesday
135,114106285.62781183
3420,114106285.62781183
3738,82427282.06922233
2,10, 1,10, 0,21, 0.00,60.00,Tuesday
135,105416249.01174465
3420,105416249.01174468
3738,91801483.21914129
2,10, 1,10, 0,22, 0.00,60.00,Tuesday
135,104491297.42077106
3420,104491297.42077108
3738,104902131.96500462
2,10, 1,10, 0,23, 0.00,60.00,Tuesday
135,77772390.65670998
3420,77772390.65670998
3738,6791184.0
2,10, 1,10, 0,24, 0.00,60.00,Tuesday
135,72442274.24247962
3420,72442274.24247962
3738,6791184.0
2,11, 1,11, 0, 1, 0.00,60.00,Wednesday
135,57996196.7332391
3420,57996196.7332391
3738,6791184.0
2,11, 1,11, 0, 2, 0.00,60.00,Wednesday
135,57609860.1137362
3420,57609860.1137362
3738,6791184.0
2,11, 1,11, 0, 3, 0.00,60.00,Wednesday
135,57609860.1137362
3420,57609860.1137362
3738,6791184.0
2,11, 1,11, 0, 4, 0.00,60.00,Wednesday
135,57609860.1137362
3420,57609860.1137362
3738,6791184.0
2,11, 1,11, 0, 5, 0.00,60.00,Wednesday
135,57609860.1137362
3420,57609860.1137362
3738,6791184.0
2,11, 1,11, 0, 6, 0.00,60.00,Wednesday
135,57609860.1137362
3420,57609860.1137362
3738,6791184.0
2,11, 1,11, 0, 7, 0.00,60.00,Wednesday
135,108987609.67070934
3420,108987609.67070934
3738,6791184.0
2,11, 1,11, 0, 8, 0.00,60.00,Wednesday
135,190459078.29373166
3420,190459078.29373166
3738,92132527.9433141
2,11, 1,11, 0, 9, 0.00,60.00,Wednesday
135,304352746.34144735
3420,304352746.3414474
3738,62630104.58045429
2,11, 1,11, 0,10, 0.00,60.00,Wednesday
135,267103042.61306867
3420,267103042.61306864
3738,48723543.95211858
2,11, 1,11, 0,11, 0.00,60.00,Wednesday
135,261062877.14822495
3420,261062877.14822495
3738,21110881.24364068
2,11, 1,11, 0,12, 0.00,60.00,Wednesday
135,269757609.08708733
3420,269757609.0870873
3738,29954271.169283595
2,11, 1,11, 0,13, 0.00,60.00,Wednesday
135,275097086.49489844
3420,275097086.49489844
3738,43157129.660872765
2,11, 1,11, 0,14, 0.00,60.00,Wednesday
135,273600232.890843
3420,273600232.8908429
3738,31583529.293485265
2,11, 1,11, 0,15, 0.00,60.00,Wednesday
135,259564418.2043695
3420,259564418.2043694
3738,22990947.604374632
2,11, 1,11, 0,16, 0.00,60.00,Wednesday
135,259888798.22632053
3420,259888798.22632053
3738,29151249.302447736
2,11, 1,11, 0,17, 0.00,60.00,Wednesday
135,277035856.1338452
3420,277035856.1338452
3738,57326315.58291686
2,11, 1,11, 0,18, 0.00,60.00,Wednesday
135,241881014.6632676
3420,241881014.6632676
3738,60855833.325548165
2,11, 1,11, 0,19, 0.00,60.00,Wednesday
135,131794842.38640457
3420,131794842.38640457
3738,89522678.4360725
2,11, 1,11, 0,20, 0.00,60.00,Wednesday
135,114223022.82457852
3420,114223022.82457852
3738,98414204.65331937
2,11, 1,11, 0,21, 0.00,60.00,Wednesday
135,105701728.76565291
3420,105701728.76565292
3738,97893913.7051525
2,11, 1,11, 0,22, 0.00,60.00,Wednesday
135,104012040.45046797
3420,104012040.45046797
3738,108387610.54064786
2,11, 1,11, 0,23, 0.00,60.00,Wednesday
135,77772390.65670998
3420,77772390.65670998
3738,6791184.0
2,11, 1,11, 0,24, 0.00,60.00,Wednesday
135,72442274.24247962
3420,72442274.24247962
3738,6791184.0
2,12, 1,12, 0, 1, 0.00,60.00,Thursday
135,57996196.7332391
3420,57996196.7332391
3738,6791184.0
2,12, 1,12, 0, 2, 0.00,60.00,Thursday
135,57609860.1137362
3420,57609860.1137362
3738,6791184.0
2,12, 1,12, 0, 3, 0.00,60.00,Thursday
135,57609860.1137362
3420,57609860.1137362
3738,6791184.0
2,12, 1,12, 0, 4, 0.00,60.00,Thursday
135,57609860.1137362
3420,57609860.1137362
3738,6791184.0
2,12, 1,12, 0, 5, 0.00,60.00,Thursday
135,57609860.1137362
3420,57609860.1137362
3738,6791184.0
2,12, 1,12, 0, 6, 0.00,60.00,Thursday
135,57609860.1137362
3420,57609860.1137362
3738,6791184.0
2,12, 1,12, 0, 7, 0.00,60.00,Thursday
135,112539306.92895576
3420,112539306.92895576
3738,6791184.0
2,12, 1,12, 0, 8, 0.00,60.00,Thursday
135,195071041.44558427
3420,195071041.44558427
3738,139027707.4589904
2,12, 1,12, 0, 9, 0.00,60.00,Thursday
135,310937017.4993054
3420,310937017.4993055
3738,90335455.2025604
2,12, 1,12, 0,10, 0.00,60.00,Thursday
135,268506581.739382
3420,268506581.739382
3738,77530909.48113957
2,12, 1,12, 0,11, 0.00,60.00,Thursday
135,261932220.70091477
3420,261932220.70091468
3738,61448445.23801527
2,12, 1,12, 0,12, 0.00,60.00,Thursday
135,274026990.3356591
3420,274026990.335659
3738,55815796.68513656
2,12, 1,12, 0,13, 0.00,60.00,Thursday
135,293013668.95449764
3420,293013668.9544976
3738,48075025.48027119
2,12, 1,12, 0,14, 0.00,60.00,Thursday
135,284799359.2961514
3420,284799359.2961514
3738,43796122.51043531
2,12, 1,12, 0,15, 0.00,60.00,Thursday
135,269390359.5717317
3420,269390359.5717317
3738,24708665.754609726
2,12, 1,12, 0,16, 0.00,60.00,Thursday
135,269219722.93862057
3420,269219722.93862057
3738,32781532.456237324
2,12, 1,12, 0,17, 0.00,60.00,Thursday
135,287821282.9799748
3420,287821282.97997475
3738,39880912.45042689
2,12, 1,12, 0,18, 0.00,60.00,Thursday
135,249798955.50223535
3420,249798955.50223535
3738,54011508.108190045
2,12, 1,12, 0,19, 0.00,60.00,Thursday
135,133761400.14517713
3420,133761400.14517713
3738,80732784.1270693
2,12, 1,12, 0,20, 0.00,60.00,Thursday
135,113848647.03562102
3420,113848647.03562102
3738,78102675.79262719
2,12, 1,12, 0,21, 0.00,60.00,Thursday
135,105170315.28497946
3420,105170315.28497949
3738,81744321.47067644
2,12, 1,12, 0,22, 0.00,60.00,Thursday
135,102433959.44205089
3420,102433959.4420509
3738,84262601.77500032
2,12, 1,12, 0,23, 0.00,60.00,Thursday
135,77772390.65670998
3420,77772390.65670998
3738,6791184.0
2,12, 1,12, 0,24, 0.00,60.00,Thursday
135,72442274.24247962
3420,72442274.24247962
3738,6791184.0
2,13, 1,13, 0, 1, 0.00,60.00,Friday
135,57996196.7332391
3420,57996196.7332391
3738,6791184.0