Program Version,EnergyPlus, Version 9.6.0-f420c06a69, YMD=2022.07.05 14:54
1,5,Environment Title[],Latitude[deg],Longitude[deg],Time Zone[],Elevation[m]
2,8,Day of Simulation[],Month[],Day of Month[],DST Indicator[1=yes 0=no],Hour[],StartMinute[],EndMinute[],DayType
3,5,Cumulative Day of Simulation[],Month[],Day of Month[],DST Indicator[1=yes 0=no],DayType  ! When Daily Meters Requested
4,2,Cumulative Days of Simulation[],Month[]  ! When Monthly Meters Requested
5,1,Cumulative Days of Simulation[] ! When Run Period Meters Requested
6,1,Calendar Year of Simulation[] ! When Annual Meters Requested
135,1,Electricity:Facility [J] !Hourly
3420,1,ElectricityNet:Facility [J] !Hourly
3738,1,NaturalGas:Facility [J] !Hourly
End of Data Dictionary
1,RUNPERIOD 1,  35.04,-106.62,  -7.00,1619.00
2,1, 1, 1, 0, 1, 0.00,60.00,Holiday
135,46359074.93593144
3420,46359074.93593143
3738,6791184.0
2,1, 1, 1, 0, 2, 0.00,60.00,Holiday
135,46359235.70955593
3420,46359235.709555924
3738,6791184.0
2,1, 1, 1, 0, 3, 0.00,60.00,Holiday
135,46359235.70955593
3420,46359235.709555924
3738,6791184.0
2,1, 1, 1, 0, 4, 0.00,60.00,Holiday
135,46359235.70955593
3420,46359235.709555924
3738,6791184.0
2,1, 1, 1, 0, 5, 0.00,60.00,Holiday
135,46359235.70955593
3420,46359235.709555924
3738,6791184.0
2,1, 1, 1, 0, 6, 0.00,60.00,Holiday
135,46359235.70955593
3420,46359235.709555924
3738,6791184.0
2,1, 1, 1, 0, 7, 0.00,60.00,Holiday
135,66032185.73006148
3420,66032185.73006148
3738,6791184.0
2,1, 1, 1, 0, 8, 0.00,60.00,Holiday
135,50074623.774579875
3420,50074623.774579875
3738,6791184.0
2,1, 1, 1, 0, 9, 0.00,60.00,Holiday
135,46351708.9331394
3420,46351708.9331394
3738,6791184.0
2,1, 1, 1, 0,10, 0.00,60.00,Holiday
135,46288813.17904917
3420,46288813.179049164
3738,6791184.0
2,1, 1, 1, 0,11, 0.00,60.00,Holiday
135,50009342.363199614
3420,50009342.363199614
3738,6791184.0
2,1, 1, 1, 0,12, 0.00,60.00,Holiday
135,53617732.55272024
3420,53617732.55272024
3738,6791184.0
2,1, 1, 1, 0,13, 0.00,60.00,Holiday
135,53634290.22678877
3420,53634290.22678876
3738,6791184.0
2,1, 1, 1, 0,14, 0.00,60.00,Holiday
135,58165555.4574862
3420,58165555.45748622
3738,6791184.0
2,1, 1, 1, 0,15, 0.00,60.00,Holiday
135,62026144.28259239
3420,62026144.28259239
3738,6791184.0
2,1, 1, 1, 0,16, 0.00,60.00,Holiday
135,62605261.924326405
3420,62605261.924326405
3738,6791184.0
2,1, 1, 1, 0,17, 0.00,60.00,Holiday
135,50224406.74534619
3420,50224406.74534619
3738,6791184.0
2,1, 1, 1, 0,18, 0.00,60.00,Holiday
135,67534969.93162571
3420,67534969.93162571
3738,6791184.0
2,1, 1, 1, 0,19, 0.00,60.00,Holiday
135,57105773.81922845
3420,57105773.81922844
3738,6791184.0
2,1, 1, 1, 0,20, 0.00,60.00,Holiday
135,48904615.70955593
3420,48904615.70955593
3738,6791184.0
2,1, 1, 1, 0,21, 0.00,60.00,Holiday
135,48904615.70955593
3420,48904615.70955593
3738,6791184.0
2,1, 1, 1, 0,22, 0.00,60.00,Holiday
135,48904615.70955593
3420,48904615.70955593
3738,6791184.0
2,1, 1, 1, 0,23, 0.00,60.00,Holiday
135,48904615.70955593
3420,48904615.70955593
3738,6791184.0
2,1, 1, 1, 0,24, 0.00,60.00,Holiday
135,48904615.70955593
3420,48904615.70955593
3738,6791184.0
2,2, 1, 2, 0, 1, 0.00,60.00,Monday
135,57609860.1137362
3420,57609860.1137362
3738,6791184.0
2,2, 1, 2, 0, 2, 0.00,60.00,Monday
135,57609860.1137362
3420,57609860.1137362
3738,6791184.0
2,2, 1, 2, 0, 3, 0.00,60.00,Monday
135,57609860.1137362
3420,57609860.1137362
3738,6791184.0
2,2, 1, 2, 0, 4, 0.00,60.00,Monday
135,57609860.1137362
3420,57609860.1137362
3738,6791184.0
2,2, 1, 2, 0, 5, 0.00,60.00,Monday
135,57609860.1137362
3420,57609860.1137362
3738,6791184.0
2,2, 1, 2, 0, 6, 0.00,60.00,Monday
135,57609860.1137362
3420,57609860.1137362
3738,6791184.0
2,2, 1, 2, 0, 7, 0.00,60.00,Monday
135,137296304.18115827
3420,137296304.18115827
3738,6791184.0
2,2, 1, 2, 0, 8, 0.00,60.00,Monday
135,228091710.0508986
3420,228091710.0508986
3738,147577462.2909266
2,2, 1, 2, 0, 9, 0.00,60.00,Monday
135,310928566.17060184
3420,310928566.17060184
3738,92519461.25435951
2,2, 1, 2, 0,10, 0.00,60.00,Monday
135,270881865.80048376
3420,270881865.8004837
3738,64104549.62432517
2,2, 1, 2, 0,11, 0.00,60.00,Monday
135,266825978.4651965
3420,266825978.46519646
3738,26002213.802575894
2,2, 1, 2, 0,12, 0.00,60.00,Monday
135,286238561.40794075
3420,286238561.40794075
3738,20876803.489152778
2,2, 1, 2, 0,13, 0.00,60.00,Monday
135,288356518.2716734
3420,288356518.2716734
3738,31334359.881758783
2,2, 1, 2, 0,14, 0.00,60.00,Monday
135,302975525.7747885
3420,302975525.7747885
3738,26165959.05339483
2,2, 1, 2, 0,15, 0.00,60.00,Monday
135,294972021.31000483
3420,294972021.3100048
3738,16663111.546087924
2,2, 1, 2, 0,16, 0.00,60.00,Monday
135,299410344.29420304
3420,299410344.29420304
3738,19076358.658423744
2,2, 1, 2, 0,17, 0.00,60.00,Monday
135,298389053.9474881
3420,298389053.94748807
3738,20696594.044879485
2,2, 1, 2, 0,18, 0.00,60.00,Monday
135,237624719.45918894
3420,237624719.45918894
3738,24658594.589504886
2,2, 1, 2, 0,19, 0.00,60.00,Monday
135,131458533.53394982
3420,131458533.5339498
3738,57891981.091293484
2,2, 1, 2, 0,20, 0.00,60.00,Monday
135,116433380.00818448
3420,116433380.00818448
3738,72469446.82990465
2,2, 1, 2, 0,21, 0.00,60.00,Monday
135,107904137.86016025
3420,107904137.86016026
3738,84419336.25488532
2,2, 1, 2, 0,22, 0.00,60.00,Monday
135,105912372.76109348
3420,105912372.7610935
3738,86039928.28257765
2,2, 1, 2, 0,23, 0.00,60.00,Monday
135,77772390.65670998
3420,77772390.65670998
3738,6791184.0
2,2, 1, 2, 0,24, 0.00,60.00,Monday
135,72442274.24247962
3420,72442274.24247962
3738,6791184.0
2,3, 1, 3, 0, 1, 0.00,60.00,Tuesday
135,57996196.7332391
3420,57996196.7332391
3738,6791184.0
2,3, 1, 3, 0, 2, 0.00,60.00,Tuesday
135,57609860.1137362
3420,57609860.1137362
3738,6791184.0
2,3, 1, 3, 0, 3, 0.00,60.00,Tuesday
135,57609860.1137362
3420,57609860.1137362
3738,6791184.0
2,3, 1, 3, 0, 4, 0.00,60.00,Tuesday
135,57609860.1137362
3420,57609860.1137362
3738,6791184.0
2,3, 1, 3, 0, 5, 0.00,60.00,Tuesday
135,57609860.1137362
3420,57609860.1137362
3738,6791184.0
2,3, 1, 3, 0, 6, 0.00,60.00,Tuesday
135,57609860.1137362
3420,57609860.1137362
3738,6791184.0
2,3, 1, 3, 0, 7, 0.00,60.00,Tuesday
135,112102812.71491654
3420,112102812.71491656
3738,6791184.0
2,3, 1, 3, 0, 8, 0.00,60.00,Tuesday
135,192408370.01605332
3420,192408370.0160533
3738,131270974.34457883
2,3, 1, 3, 0, 9, 0.00,60.00,Tuesday
135,311377468.3005356
3420,311377468.30053556
3738,77011765.8614414
2,3, 1, 3, 0,10, 0.00,60.00,Tuesday
135,275991645.6933976
3420,275991645.6933976
3738,37032265.1894799
2,3, 1, 3, 0,11, 0.00,60.00,Tuesday
135,275027993.38438785
3420,275027993.38438785
3738,12356874.77290462
2,3, 1, 3, 0,12, 0.00,60.00,Tuesday
135,293027824.6580732
3420,293027824.6580732
3738,23129488.975600578
2,3, 1, 3, 0,13, 0.00,60.00,Tuesday
135,294632280.35879445
3420,294632280.3587944
3738,31312393.36103994
2,3, 1, 3, 0,14, 0.00,60.00,Tuesday
135,311631511.72635615
3420,311631511.72635615
3738,26179763.885574874
2,3, 1, 3, 0,15, 0.00,60.00,Tuesday
135,297469091.1916596
3420,297469091.1916596
3738,20133738.27406303
2,3, 1, 3, 0,16, 0.00,60.00,Tuesday
135,301048099.2336246
3420,301048099.2336245
3738,15641933.428970817
2,3, 1, 3, 0,17, 0.00,60.00,Tuesday
135,304381337.59458923
3420,304381337.5945892
3738,21131219.676558174
2,3, 1, 3, 0,18, 0.00,60.00,Tuesday
135,241555527.0717467
3420,241555527.07174665
3738,18150591.1484727
2,3, 1, 3, 0,19, 0.00,60.00,Tuesday
135,131866343.2953921
3420,131866343.2953921
3738,35254282.540325396
2,3, 1, 3, 0,20, 0.00,60.00,Tuesday
135,113569604.38930234
3420,113569604.38930234
3738,55618240.98964385
2,3, 1, 3, 0,21, 0.00,60.00,Tuesday
135,103004750.63109705
3420,103004750.63109705
3738,64520228.30643645
2,3, 1, 3, 0,22, 0.00,60.00,Tuesday
135,100314428.85157591
3420,100314428.85157594
3738,93974720.59014836
2,3, 1, 3, 0,23, 0.00,60.00,Tuesday
135,77772390.65670998
3420,77772390.65670998
3738,6791184.0
2,3, 1, 3, 0,24, 0.00,60.00,Tuesday
135,72442274.24247962
3420,72442274.24247962
3738,6791184.0
2,4, 1, 4, 0, 1, 0.00,60.00,Wednesday
135,57996196.7332391
3420,57996196.7332391
3738,6791184.0
2,4, 1, 4, 0, 2, 0.00,60.00,Wednesday
135,57609860.1137362
3420,57609860.1137362
3738,6791184.0
2,4, 1, 4, 0, 3, 0.00,60.00,Wednesday
135,57609860.1137362
3420,57609860.1137362
3738,6791184.0
2,4, 1, 4, 0, 4, 0.00,60.00,Wednesday
135,57609860.1137362
3420,57609860.1137362
3738,6791184.0
2,4, 1, 4, 0, 5, 0.00,60.00,Wednesday
135,57609860.1137362
3420,57609860.1137362
3738,6791184.0
2,4, 1, 4, 0, 6, 0.00,60.00,Wednesday
135,57609860.1137362
3420,57609860.1137362
3738,6791184.0
2,4, 1, 4, 0, 7, 0.00,60.00,Wednesday
135,107774072.52574906
3420,107774072.52574907
3738,6791184.0
2,4, 1, 4, 0, 8, 0.00,60.00,Wednesday
135,190977085.51973185
3420,190977085.51973185
3738,152549075.17350966
2,4, 1, 4, 0, 9, 0.00,60.00,Wednesday
135,309442795.73769474
3420,309442795.7376947
3738,90061261.93808414
2,4, 1, 4, 0,10, 0.00,60.00,Wednesday
135,270429451.7583626
3420,270429451.7583626
3738,61809308.47868821
2,4, 1, 4, 0,11, 0.00,60.00,Wednesday
135,264628704.1230281
3420,264628704.1230281
3738,42705920.408390485
2,4, 1, 4, 0,12, 0.00,60.00,Wednesday
135,278718611.7130605
3420,278718611.7130605
3738,27237330.092575423
2,4, 1, 4, 0,13, 0.00,60.00,Wednesday
135,284511525.7473638
3420,284511525.7473638
3738,31351205.050687008
2,4, 1, 4, 0,14, 0.00,60.00,Wednesday
135,289894129.4150424
3420,289894129.4150424
3738,26189702.813008703
2,4, 1, 4, 0,15, 0.00,60.00,Wednesday
135,275182970.10820526
3420,275182970.1082052
3738,20162358.474987995
2,4, 1, 4, 0,16, 0.00,60.00,Wednesday
135,274853282.9723808
3420,274853282.97238076
3738,15652705.375646915
2,4, 1, 4, 0,17, 0.00,60.00,Wednesday
135,294556686.5135559
3420,294556686.5135559
3738,25318578.899761163
2,4, 1, 4, 0,18, 0.00,60.00,Wednesday
135,251267316.60602063
3420,251267316.60602063
3738,20631977.949197866
2,4, 1, 4, 0,19, 0.00,60.00,Wednesday
135,131888589.07372302
3420,131888589.07372302
3738,37714540.541103825
2,4, 1, 4, 0,20, 0.00,60.00,Wednesday
135,113569604.38930234
3420,113569604.38930234
3738,52554108.24589509
2,4, 1, 4, 0,21, 0.00,60.00,Wednesday
135,102913361.90140839
3420,102913361.90140839
3738,65833880.561717674
2,4, 1, 4, 0,22, 0.00,60.00,Wednesday
135,99099294.84500085
3420,99099294.84500086
3738,77140171.07041092
2,4, 1, 4, 0,23, 0.00,60.00,Wednesday
135,77772390.65670998
3420,77772390.65670998
3738,6791184.0
2,4, 1, 4, 0,24, 0.00,60.00,Wednesday
135,72442274.24247962
3420,72442274.24247962
3738,6791184.0
2,5, 1, 5, 0, 1, 0.00,60.00,Thursday
135,57996196.7332391
3420,57996196.7332391
3738,6791184.0
2,5, 1, 5, 0, 2, 0.00,60.00,Thursday
135,57609860.1137362
3420,57609860.1137362
3738,6791184.0
2,5, 1, 5, 0, 3, 0.00,60.00,Thursday
135,57609860.1137362
3420,57609860.1137362
3738,6791184.0
2,5, 1, 5, 0, 4, 0.00,60.00,Thursday
135,57609860.1137362
3420,57609860.1137362
3738,6791184.0
2,5, 1, 5, 0, 5, 0.00,60.00,Thursday
135,57609860.1137362
3420,57609860.1137362
3738,6791184.0
2,5, 1, 5, 0, 6, 0.00,60.00,Thursday
135,57609860.1137362
3420,57609860.1137362
3738,6791184.0
2,5, 1, 5, 0, 7, 0.00,60.00,Thursday
135,98788290.0171481
3420,98788290.01714812
3738,6791184.0
2,5, 1, 5, 0, 8, 0.00,60.00,Thursday
135,174535156.56869456
3420,174535156.56869456
3738,97247767.22897741
2,5, 1, 5, 0, 9, 0.00,60.00,Thursday
135,301035627.4535388
3420,301035627.4535388
3738,48021784.22831018
2,5, 1, 5, 0,10, 0.00,60.00,Thursday
135,267756686.62030932
3420,267756686.6203093
3738,9997520.415219225
2,5, 1, 5, 0,11, 0.00,60.00,Thursday
135,264811553.18635222
3420,264811553.18635216
3738,11332707.839638844
2,5, 1, 5, 0,12, 0.00,60.00,Thursday
135,286512019.24763095
3420,286512019.24763095
3738,20890780.152340878
2,5, 1, 5, 0,13, 0.00,60.00,Thursday
135,296915648.78483546
3420,296915648.78483546
3738,31320861.56997098
2,5, 1, 5, 0,14, 0.00,60.00,Thursday
135,319686690.9203825
3420,319686690.9203825
3738,26189010.48246064
2,5, 1, 5, 0,15, 0.00,60.00,Thursday
135,314245487.04600865
3420,314245487.0460086
3738,20203923.855748553
2,5, 1, 5, 0,16, 0.00,60.00,Thursday
135,317098878.80712205
3420,317098878.80712205
3738,15641475.131696757
2,5, 1, 5, 0,17, 0.00,60.00,Thursday
135,315089956.8746787
3420,315089956.8746787
3738,25322053.842683345
2,5, 1, 5, 0,18, 0.00,60.00,Thursday
135,232805084.40105617
3420,232805084.4010561
3738,11105911.258142497
2,5, 1, 5, 0,19, 0.00,60.00,Thursday
135,130814693.88322851
3420,130814693.88322851
3738,11126661.666952152
2,5, 1, 5, 0,20, 0.00,60.00,Thursday
135,113569604.38930234
3420,113569604.38930234
3738,20314995.38841509
2,5, 1, 5, 0,21, 0.00,60.00,Thursday
135,102910895.06207252
3420,102910895.06207252
3738,32071632.751532048
2,5, 1, 5, 0,22, 0.00,60.00,Thursday
135,98267997.61519502
3420,98267997.61519504
3738,49814984.53809334
2,5, 1, 5, 0,23, 0.00,60.00,Thursday
135,77772390.65670998
3420,77772390.65670998
3738,6791184.0
2,5, 1, 5, 0,24, 0.00,60.00,Thursday
135,72442274.24247962
3420,72442274.24247962
3738,6791184.0
2,6, 1, 6, 0, 1, 0.00,60.00,Friday
135,57996196.7332391
3420,57996196.7332391
3738,6791184.0
2,6, 1, 6, 0, 2, 0.00,60.00,Friday
135,57609860.1137362
3420,57609860.1137362
3738,6791184.0
2,6, 1, 6, 0, 3, 0.00,60.00,Friday
135,57609860.1137362
3420,57609860.1137362
3738,6791184.0
2,6, 1, 6, 0, 4, 0.00,60.00,Friday
135,57609860.1137362
3420,57609860.1137362
3738,6791184.0
2,6, 1, 6, 0, 5, 0.00,60.00,Friday
135,57609860.1137362
3420,57609860.1137362
3738,6791184.0
2,6, 1, 6, 0, 6, 0.00,60.00,Friday
135,57609860.1137362
3420,57609860.1137362
3738,6791184.0
2,6, 1, 6, 0, 7, 0.00,60.00,Friday
135,102912486.38653356
3420,102912486.38653356
3738,6791184.0
2,6, 1, 6, 0, 8, 0.00,60.00,Friday
135,188501093.72708353
3420,188501093.72708356
3738,127020880.39818539
2,6, 1, 6, 0, 9, 0.00,60.00,Friday
135,312409653.6264449
3420,312409653.6264449
3738,89402472.5949927
2,6, 1, 6, 0,10, 0.00,60.00,Friday
135,269684099.46946347
3420,269684099.46946347
3738,81932382.82406259
2,6, 1, 6, 0,11, 0.00,60.00,Friday
135,262279831.4575853
3420,262279831.45758528
3738,71354097.82910231
2,6, 1, 6, 0,12, 0.00,60.00,Friday
135,280075554.0800612
3420,280075554.0800612
3738,47791483.45540799
2,6, 1, 6, 0,13, 0.00,60.00,Friday
135,289069669.9724549
3420,289069669.9724549
3738,28627287.234584816
2,6, 1, 6, 0,14, 0.00,60.00,Friday
135,306176578.6601077
3420,306176578.6601077
3738,27102502.24225905
2,6, 1, 6, 0,15, 0.00,60.00,Friday
135,299087303.5882662
3420,299087303.58826613
3738,19336489.094236586
2,6, 1, 6, 0,16, 0.00,60.00,Friday
135,302298133.30600077
3420,302298133.3060007
3738,15649914.06839707
2,6, 1, 6, 0,17, 0.00,60.00,Friday
135,306002369.9842464
3420,306002369.9842463
3738,25324463.90353106
2,6, 1, 6, 0,18, 0.00,60.00,Friday
135,250850779.9994226
3420,250850779.9994226
3738,53443201.33307302
2,6, 1, 6, 0,19, 0.00,60.00,Friday
135,131516947.29907013
3420,131516947.29907013
3738,82968055.59841754
2,6, 1, 6, 0,20, 0.00,60.00,Friday
135,113603176.27506435
3420,113603176.27506435
3738,85683861.45447788
2,6, 1, 6, 0,21, 0.00,60.00,Friday
135,104683618.62616828
3420,104683618.6261683
3738,103075814.88040164
2,6, 1, 6, 0,22, 0.00,60.00,Friday
135,101440132.77873695
3420,101440132.77873695
3738,101842989.67224018
2,6, 1, 6, 0,23, 0.00,60.00,Friday
135,77772390.65670998
3420,77772390.65670998
3738,6791184.0
2,6, 1, 6, 0,24, 0.00,60.00,Friday
135,72442274.24247962
3420,72442274.24247962
3738,6791184.0
2,7, 1, 7, 0, 1, 0.00,60.00,Saturday
135,46745513.81922844
3420,46745513.81922843
3738,6791184.0
2,7, 1, 7, 0, 2, 0.00,60.00,Saturday
135,46359235.70955593
3420,46359235.709555924
3738,6791184.0
2,7, 1, 7, 0, 3, 0.00,60.00,Saturday
135,46359235.70955593
3420,46359235.709555924
3738,6791184.0
2,7, 1, 7, 0, 4, 0.00,60.00,Saturday
135,46359235.70955593
3420,46359235.709555924
3738,6791184.0
2,7, 1, 7, 0, 5, 0.00,60.00,Saturday
135,46359235.70955593
3420,46359235.709555924
3738,6791184.0
2,7, 1, 7, 0, 6, 0.00,60.00,Saturday
135,46359235.70955593
3420,46359235.709555924
3738,6791184.0
2,7, 1, 7, 0, 7, 0.00,60.00,Saturday
135,113598396.29356517
3420,113598396.29356517
3738,6791184.0
2,7, 1, 7, 0, 8, 0.00,60.00,Saturday
135,143958501.45262495
3420,143958501.45262492
3738,136694913.09757954
2,7, 1, 7, 0, 9, 0.00,60.00,Saturday
135,135247216.48663804
3420,135247216.486638
3738,119514100.28262112
2,7, 1, 7, 0,10, 0.00,60.00,Saturday
135,136336721.81255084
3420,136336721.81255084
3738,106176639.09766719
2,7, 1, 7, 0,11, 0.00,60.00,Saturday
135,128896095.04121394
3420,128896095.04121394
3738,78429945.27588399
2,7, 1, 7, 0,12, 0.00,60.00,Saturday
135,137740072.278229
3420,137740072.278229
3738,37361500.1005767
2,7, 1, 7, 0,13, 0.00,60.00,Saturday
135,97120166.22071199
3420,97120166.22071199
3738,24715932.273280766
2,7, 1, 7, 0,14, 0.00,60.00,Saturday
135,86586769.13283187
3420,86586769.13283189
3738,26290366.05157412
2,7, 1, 7, 0,15, 0.00,60.00,Saturday
135,80777988.06353001
3420,80777988.06353001
3738,23933055.71994051
2,7, 1, 7, 0,16, 0.00,60.00,Saturday
135,76337541.89993472
3420,76337541.89993472
3738,31831241.014109127
2,7, 1, 7, 0,17, 0.00,60.00,Saturday
135,79479542.90365382
3420,79479542.90365383
3738,40813247.55305446
2,7, 1, 7, 0,18, 0.00,60.00,Saturday
135,83077160.33306564
3420,83077160.33306564
3738,55362496.32783841
2,7, 1, 7, 0,19, 0.00,60.00,Saturday
135,66276703.53612528
3420,66276703.53612528
3738,6791184.0
2,7, 1, 7, 0,20, 0.00,60.00,Saturday
135,49290893.81922844
3420,49290893.81922844
3738,6791184.0
2,7, 1, 7, 0,21, 0.00,60.00,Saturday
135,48904615.70955593
3420,48904615.70955593
3738,6791184.0
2,7, 1, 7, 0,22, 0.00,60.00,Saturday
135,48904615.70955593
3420,48904615.70955593
3738,6791184.0
2,7, 1, 7, 0,23, 0.00,60.00,Saturday
135,48904615.70955593
3420,48904615.70955593
3738,6791184.0
2,7, 1, 7, 0,24, 0.00,60.00,Saturday
135,48904615.70955593
3420,48904615.70955593
3738,6791184.0
2,8, 1, 8, 0, 1, 0.00,60.00,Sunday
135,46359235.70955593
3420,46359235.709555924
3738,6791184.0
2,8, 1, 8, 0, 2, 0.00,60.00,Sunday
135,46359235.70955593
3420,46359235.709555924
3738,6791184.0
2,8, 1, 8, 0, 3, 0.00,60.00,Sunday
135,46359235.70955593
3420,46359235.709555924
3738,6791184.0
2,8, 1, 8, 0, 4, 0.00,60.00,Sunday
135,46359235.70955593
3420,46359235.709555924
3738,6791184.0
2,8, 1, 8, 0, 5, 0.00,60.00,Sunday
135,46359235.70955593
3420,46359235.709555924
3738,6791184.0
2,8, 1, 8, 0, 6, 0.00,60.00,Sunday
135,46359235.70955593
3420,46359235.709555924
3738,6791184.0
2,8, 1, 8, 0, 7, 0.00,60.00,Sunday
135,66032185.73006148
3420,66032185.73006148
3738,6791184.0
2,8, 1, 8, 0, 8, 0.00,60.00,Sunday
135,53323580.330645084
3420,53323580.330645084
3738,6791184.0
2,8, 1, 8, 0, 9, 0.00,60.00,Sunday
135,46344166.24829911
3420,46344166.24829911
3738,6791184.0
2,8, 1, 8, 0,10, 0.00,60.00,Sunday
135,46288812.51597283
3420,46288812.51597283
3738,6791184.0
2,8, 1, 8, 0,11, 0.00,60.00,Sunday
135,47247669.66831426
3420,47247669.668314256
3738,6791184.0
2,8, 1, 8, 0,12, 0.00,60.00,Sunday
135,50814995.24310404
3420,50814995.24310404
3738,6791184.0
2,8, 1, 8, 0,13, 0.00,60.00,Sunday
135,54254504.1769317
3420,54254504.17693171
3738,6791184.0
2,8, 1, 8, 0,14, 0.00,60.00,Sunday
135,53674486.43232735
3420,53674486.43232735
3738,6791184.0
2,8, 1, 8, 0,15, 0.00,60.00,Sunday
135,54204381.07279156
3420,54204381.07279156
3738,6791184.0
2,8, 1, 8, 0,16, 0.00,60.00,Sunday
135,53466002.91257712
3420,53466002.91257712
3738,6791184.0
2,8, 1, 8, 0,17, 0.00,60.00,Sunday
135,50395445.48738883
3420,50395445.487388834
3738,6791184.0
2,8, 1, 8, 0,18, 0.00,60.00,Sunday
135,66276671.30593526
3420,66276671.30593526
3738,6791184.0
2,8, 1, 8, 0,19, 0.00,60.00,Sunday
135,57105773.81922845
3420,57105773.81922844
3738,6791184.0
2,8, 1, 8, 0,20, 0.00,60.00,Sunday
135,48904615.70955593
3420,48904615.70955593
3738,6791184.0
2,8, 1, 8, 0,21, 0.00,60.00,Sunday
135,48904615.70955593
3420,48904615.70955593
3738,6791184.0
2,8, 1, 8, 0,22, 0.00,60.00,Sunday
135,48904615.70955593
3420,48904615.70955593
3738,6791184.0
2,8, 1, 8, 0,23, 0.00,60.00,Sunday
135,48904615.70955593
3420,48904615.70955593
3738,6791184.0
2,8, 1, 8, 0,24, 0.00,60.00,Sunday
135,48904615.70955593
3420,48904615.70955593
3738,6791184.0
2,9, 1, 9, 0, 1, 0.00,60.00,Monday
135,57609860.1137362
3420,57609860.1137362
3738,6791184.0
2,9, 1, 9, 0, 2, 0.00,60.00,Monday
135,57609860.1137362
3420,57609860.1137362
3738,6791184.0
2,9, 1, 9, 0, 3, 0.00,60.00,Monday
135,57609860.1137362
3420,57609860.1137362
3738,6791184.0
2,9, 1, 9, 0, 4, 0.00,60.00,Monday
135,57609860.1137362
3420,57609860.1137362
3738,6791184.0
2,9, 1, 9, 0, 5, 0.00,60.00,Monday
135,57609860.1137362
3420,57609860.1137362
3738,6791184.0
2,9, 1, 9, 0, 6, 0.00,60.00,Monday
135,57609860.1137362
3420,57609860.1137362
3738,6791184.0
2,9, 1, 9, 0, 7, 0.00,60.00,Monday
135,131651907.85973184
3420,131651907.85973182
3738,6791184.0
2,9, 1, 9, 0, 8, 0.00,60.00,Monday
135,222700036.13114363
3420,222700036.13114357
3738,138637867.38835645
2,9, 1, 9, 0, 9, 0.00,60.00,Monday
135,314990784.3472735
3420,314990784.3472735
3738,84595188.08282799
2,9, 1, 9, 0,10, 0.00,60.00,Monday
135,274281135.82327443
3420,274281135.82327443
3738,59787107.20356035
2,9, 1, 9, 0,11, 0.00,60.00,Monday
135,269373388.73366886
3420,269373388.7336688
3738,24518184.33707263
2,9, 1, 9, 0,12, 0.00,60.00,Monday
135,287582264.1893929
3420,287582264.18939286
3738,20903860.244581196
2,9, 1, 9, 0,13, 0.00,60.00,Monday
135,290138542.76044154
3420,290138542.76044154
3738,31377128.817506917
2,9, 1, 9, 0,14, 0.00,60.00,Monday
135,305985701.78574884
3420,305985701.78574884
3738,26214860.10457267
2,9, 1, 9, 0,15, 0.00,60.00,Monday
135,299746942.003657
3420,299746942.0036569
3738,20170809.18665093
2,9, 1, 9, 0,16, 0.00,60.00,Monday
135,308364510.4675337
3420,308364510.4675337
3738,15657216.980463648
2,9, 1, 9, 0,17, 0.00,60.00,Monday
135,319461609.161703
3420,319461609.1617029
3738,25337010.344793603
2,9, 1, 9, 0,18, 0.00,60.00,Monday
135,241772581.08940682
3420,241772581.08940682
3738,13328504.304657802
2,9, 1, 9, 0,19, 0.00,60.00,Monday
135,131788140.79146683
3420,131788140.79146683
3738,34937715.905637786
2,9, 1, 9, 0,20, 0.00,60.00,Monday
135,113830570.65777002
3420,113830570.65777
3738,44565820.477500066
2,9, 1, 9, 0,21, 0.00,60.00,Monday
135,104721155.60166703
3420,104721155.60166703
3738,34316535.938274406
2,9, 1, 9, 0,22, 0.00,60.00,Monday
135,101782643.85724038
3420,101782643.85724038
3738,41633893.493901156
2,9, 1, 9, 0,23, 0.00,60.00,Monday
135,77772390.65670998
3420,77772390.65670998
3738,6791184.0
2,9, 1, 9, 0,24, 0.00,60.00,Monday
135,72442274.24247962
3420,72442274.24247962
3738,6791184.0
2,10, 1,10, 0, 1, 0.00,60.00,Tuesday
135,57996196.7332391
3420,57996196.7332391
3738,6791184.0
2,10, 1,10, 0, 2, 0.00,60.00,Tuesday
135,57609860.1137362
3420,57609860.1137362
3738,6791184.0
2,10, 1,10, 0, 3, 0.00,60.00,Tuesday
135,57609860.1137362
3420,57609860.1137362
3738,6791184.0
2,10, 1,10, 0, 4, 0.00,60.00,Tuesday
135,57609860.1137362
3420,57609860.1137362
3738,6791184.0
2,10, 1,10, 0, 5, 0.00,60.00,Tuesday
135,57609860.1137362
3420,57609860.1137362
3738,6791184.0
2,10, 1,10, 0, 6, 0.00,60.00,Tuesday
135,57609860.1137362
3420,57609860.1137362
3738,6791184.0
2,10, 1,10, 0, 7, 0.00,60.00,Tuesday
135,114219787.5852727
3420,114219787.58527271
3738,6791184.0
2,10, 1,10, 0, 8, 0.00,60.00,Tuesday
135,197082287.74573022
3420,197082287.74573025
3738,152789882.8420964
2,10, 1,10, 0, 9, 0.00,60.00,Tuesday
135,308463321.7635649
3420,308463321.7635649
3738,98094118.53126928
2,10, 1,10, 0,10, 0.00,60.00,Tuesday
135,268737234.6183802
3420,268737234.6183802
3738,76878012.68453819
2,10, 1,10, 0,11, 0.00,60.00,Tuesday
135,261067581.18263492
3420,261067581.1826349
3738,66742045.98694895
2,10, 1,10, 0,12, 0.00,60.00,Tuesday
135,270870231.63349026
3420,270870231.6334902
3738,77615489.28696015
2,10, 1,10, 0,13, 0.00,60.00,Tuesday
135,290801865.599657
3420,290801865.599657
3738,59215526.58619568
2,10, 1,10, 0,14, 0.00,60.00,Tuesday
135,286685506.8287312
3420,286685506.8287312
3738,37247838.376704074
2,10, 1,10, 0,15, 0.00,60.00,Tuesday
135,278782861.34779406
3420,278782861.347794
3738,16088584.291650582
2,10, 1,10, 0,16, 0.00,60.00,Tuesday
135,281101514.55591613
3420,281101514.555916
3738,17431069.7597225
2,10, 1,10, 0,17, 0.00,60.00,Tuesday
135,293013997.6003463
3420,293013997.60034627
3738,23484711.995821588
2,10, 1,10, 0,18, 0.00,60.00,Tuesday
135,250217844.15496993
3420,250217844.15496993
3738,40695916.97171902
2,10, 1,10, 0,19, 0.00,60.00,Tuesday
135,131087682.79398036
3420,131087682.79398036
3738,81985982.06887949
2,10, 1,10, 0,20, 0.00,60.00,Tuesday
135,114121538.91715476
3420,114121538.91715476
3738,85733674.25747393
2,10, 1,10, 0,21, 0.00,60.00,Tuesday
135,105319110.60868311
3420,105319110.60868311
3738,95136609.09243289
2,10, 1,10, 0,22, 0.00,60.00,Tuesday
135,104459415.50872149
3420,104459415.50872152
3738,107685127.93019654
2,10, 1,10, 0,23, 0.00,60.00,Tuesday
135,77772390.65670998
3420,77772390.65670998
3738,6791184.0
2,10, 1,10, 0,24, 0.00,60.00,Tuesday
135,72442274.24247962
3420,72442274.24247962
3738,6791184.0
2,11, 1,11, 0, 1, 0.00,60.00,Wednesday
135,57996196.7332391
3420,57996196.7332391
3738,6791184.0
2,11, 1,11, 0, 2, 0.00,60.00,Wednesday
135,57609860.1137362
3420,57609860.1137362
3738,6791184.0
2,11, 1,11, 0, 3, 0.00,60.00,Wednesday
135,57609860.1137362
3420,57609860.1137362
3738,6791184.0
2,11, 1,11, 0, 4, 0.00,60.00,Wednesday
135,57609860.1137362
3420,57609860.1137362
3738,6791184.0
2,11, 1,11, 0, 5, 0.00,60.00,Wednesday
135,57609860.1137362
3420,57609860.1137362
3738,6791184.0
2,11, 1,11, 0, 6, 0.00,60.00,Wednesday
135,57609860.1137362
3420,57609860.1137362
3738,6791184.0
2,11, 1,11, 0, 7, 0.00,60.00,Wednesday
135,109468005.7067557
3420,109468005.70675568
3738,6791184.0
2,11, 1,11, 0, 8, 0.00,60.00,Wednesday
135,191097434.84055498
3420,191097434.84055498
3738,95475964.21248491
2,11, 1,11, 0, 9, 0.00,60.00,Wednesday
135,304768226.0343653
3420,304768226.03436536
3738,64804252.241664596
2,11, 1,11, 0,10, 0.00,60.00,Wednesday
135,267280228.64930296
3420,267280228.64930293
3738,51254017.65641002
2,11, 1,11, 0,11, 0.00,60.00,Wednesday
135,261097875.36774823
3420,261097875.3677482
3738,23283829.49260856
2,11, 1,11, 0,12, 0.00,60.00,Wednesday
135,269799336.1145105
3420,269799336.1145105
3738,31519690.475808077
2,11, 1,11, 0,13, 0.00,60.00,Wednesday
135,276175101.9387126
3420,276175101.9387126
3738,45605157.64822748
2,11, 1,11, 0,14, 0.00,60.00,Wednesday
135,273674500.03606284
3420,273674500.03606284
3738,33602300.89667618
2,11, 1,11, 0,15, 0.00,60.00,Wednesday
135,259631008.17403716
3420,259631008.1740371
3738,24283090.073239475
2,11, 1,11, 0,16, 0.00,60.00,Wednesday
135,259958391.90279734
3420,259958391.90279728
3738,31738732.44549037
2,11, 1,11, 0,17, 0.00,60.00,Wednesday
135,277111253.1948903
3420,277111253.1948903
3738,59834172.37107387
2,11, 1,11, 0,18, 0.00,60.00,Wednesday
135,242016594.85317203
3420,242016594.853172
3738,63171202.566539496
2,11, 1,11, 0,19, 0.00,60.00,Wednesday
135,131892881.01250282
3420,131892881.01250282
3738,93105670.30478159
2,11, 1,11, 0,20, 0.00,60.00,Wednesday
135,114424896.469506
3420,114424896.469506
3738,101955129.20832694
2,11, 1,11, 0,21, 0.00,60.00,Wednesday
135,106053000.93632947
3420,106053000.93632947
3738,101431388.00466108
2,11, 1,11, 0,22, 0.00,60.00,Wednesday
135,104485119.83102876
3420,104485119.83102877
3738,111859439.24359743
2,11, 1,11, 0,23, 0.00,60.00,Wednesday
135,77772390.65670998
3420,77772390.65670998
3738,6791184.0
2,11, 1,11, 0,24, 0.00,60.00,Wednesday
135,72442274.24247962
3420,72442274.24247962
3738,6791184.0
2,12, 1,12, 0, 1, 0.00,60.00,Thursday
135,57996196.7332391
3420,57996196.7332391
3738,6791184.0
2,12, 1,12, 0, 2, 0.00,60.00,Thursday
135,57609860.1137362
3420,57609860.1137362
3738,6791184.0
2,12, 1,12, 0, 3, 0.00,60.00,Thursday
135,57609860.1137362
3420,57609860.1137362
3738,6791184.0
2,12, 1,12, 0, 4, 0.00,60.00,Thursday
135,57609860.1137362
3420,57609860.1137362
3738,6791184.0
2,12, 1,12, 0, 5, 0.00,60.00,Thursday
135,57609860.1137362
3420,57609860.1137362
3738,6791184.0
2,12, 1,12, 0, 6, 0.00,60.00,Thursday
135,57609860.1137362
3420,57609860.1137362
3738,6791184.0
2,12, 1,12, 0, 7, 0.00,60.00,Thursday
135,113513488.54539421
3420,113513488.5453942
3738,6791184.0
2,12, 1,12, 0, 8, 0.00,60.00,Thursday
135,196368441.91304675
3420,196368441.91304672
3738,142792728.7943127
2,12, 1,12, 0, 9, 0.00,60.00,Thursday
135,311332989.0617415
3420,311332989.0617415
3738,92701106.2328031
2,12, 1,12, 0,10, 0.00,60.00,Thursday
135,268376040.87853095
3420,268376040.87853095
3738,79881648.06015843
2,12, 1,12, 0,11, 0.00,60.00,Thursday
135,261641155.86537412
3420,261641155.86537412
3738,63832158.24223021
2,12, 1,12, 0,12, 0.00,60.00,Thursday
135,273733283.21297073
3420,273733283.2129706
3738,58472314.4523383
2,12, 1,12, 0,13, 0.00,60.00,Thursday
135,293176010.0294905
3420,293176010.0294904
3738,50731066.23691713
2,12, 1,12, 0,14, 0.00,60.00,Thursday
135,284464317.03246474
3420,284464317.0324648
3738,47010503.56890986
2,12, 1,12, 0,15, 0.00,60.00,Thursday
135,269096100.0858798
3420,269096100.0858798
3738,27387928.084979765
2,12, 1,12, 0,16, 0.00,60.00,Thursday
135,268913908.655632
3420,268913908.655632
3738,35533886.62206721
2,12, 1,12, 0,17, 0.00,60.00,Thursday
135,287520582.38842523
3420,287520582.3884252
3738,42541175.177953094
2,12, 1,12, 0,18, 0.00,60.00,Thursday
135,249480953.7582188
3420,249480953.75821885
3738,56375418.65197854
2,12, 1,12, 0,19, 0.00,60.00,Thursday
135,134066588.25384066
3420,134066588.25384064
3738,84548197.47011864
2,12, 1,12, 0,20, 0.00,60.00,Thursday
135,114104810.17387559
3420,114104810.17387559
3738,81734323.07569316
2,12, 1,12, 0,21, 0.00,60.00,Thursday
135,105681717.78525192
3420,105681717.78525196
3738,85337759.23598184
2,12, 1,12, 0,22, 0.00,60.00,Thursday
135,103069694.32647467
3420,103069694.3264747
3738,87776035.63832182
2,12, 1,12, 0,23, 0.00,60.00,Thursday
135,77772390.65670998
3420,77772390.65670998
3738,6791184.0
2,12, 1,12, 0,24, 0.00,60.00,Thursday
135,72442274.24247962
3420,72442274.24247962
3738,6791184.0
2,13, 1,13, 0, 1, 0.00,60.00,Friday
135,57996196.7332391
3420,57996196.7332391
3738,6791184.0