Program Version,EnergyPlus, Version 9.6.0-f420c06a69, YMD=2022.07.16 14:55
1,5,Environment Title[],Latitude[deg],Longitude[deg],Time Zone[],Elevation[m]
2,8,Day of Simulation[],Month[],Day of Month[],DST Indicator[1=yes 0=no],Hour[],StartMinute[],EndMinute[],DayType
3,5,Cumulative Day of Simulation[],Month[],Day of Month[],DST Indicator[1=yes 0=no],DayType  ! When Daily Meters Requested
4,2,Cumulative Days of Simulation[],Month[]  ! When Monthly Meters Requested
5,1,Cumulative Days of Simulation[] ! When Run Period Meters Requested
6,1,Calendar Year of Simulation[] ! When Annual Meters Requested
135,1,Electricity:Facility [J] !Hourly
3420,1,ElectricityNet:Facility [J] !Hourly
3738,1,NaturalGas:Facility [J] !Hourly
End of Data Dictionary
1,RUNPERIOD 1,  35.04,-106.62,  -7.00,1619.00
2,1, 1, 1, 0, 1, 0.00,60.00,Holiday
135,46359074.93593144
3420,46359074.93593143
3738,6791184.0
2,1, 1, 1, 0, 2, 0.00,60.00,Holiday
135,46359235.70955593
3420,46359235.709555924
3738,6791184.0
2,1, 1, 1, 0, 3, 0.00,60.00,Holiday
135,46359235.70955593
3420,46359235.709555924
3738,6791184.0
2,1, 1, 1, 0, 4, 0.00,60.00,Holiday
135,46359235.70955593
3420,46359235.709555924
3738,6791184.0
2,1, 1, 1, 0, 5, 0.00,60.00,Holiday
135,46359235.70955593
3420,46359235.709555924
3738,6791184.0
2,1, 1, 1, 0, 6, 0.00,60.00,Holiday
135,46359235.70955593
3420,46359235.709555924
3738,6791184.0
2,1, 1, 1, 0, 7, 0.00,60.00,Holiday
135,66032185.73006148
3420,66032185.73006148
3738,6791184.0
2,1, 1, 1, 0, 8, 0.00,60.00,Holiday
135,50074623.774579875
3420,50074623.774579875
3738,6791184.0
2,1, 1, 1, 0, 9, 0.00,60.00,Holiday
135,46351708.9331394
3420,46351708.9331394
3738,6791184.0
2,1, 1, 1, 0,10, 0.00,60.00,Holiday
135,46288813.17904917
3420,46288813.179049164
3738,6791184.0
2,1, 1, 1, 0,11, 0.00,60.00,Holiday
135,51149014.50787013
3420,51149014.50787013
3738,6791184.0
2,1, 1, 1, 0,12, 0.00,60.00,Holiday
135,53542591.30173427
3420,53542591.30173427
3738,6791184.0
2,1, 1, 1, 0,13, 0.00,60.00,Holiday
135,54827857.64153222
3420,54827857.64153222
3738,6791184.0
2,1, 1, 1, 0,14, 0.00,60.00,Holiday
135,61196507.52122828
3420,61196507.5212283
3738,6791184.0
2,1, 1, 1, 0,15, 0.00,60.00,Holiday
135,67239153.60782859
3420,67239153.60782859
3738,6791184.0
2,1, 1, 1, 0,16, 0.00,60.00,Holiday
135,64721412.807741076
3420,64721412.80774109
3738,6791184.0
2,1, 1, 1, 0,17, 0.00,60.00,Holiday
135,55473596.479658276
3420,55473596.479658276
3738,6791184.0
2,1, 1, 1, 0,18, 0.00,60.00,Holiday
135,66905826.86107348
3420,66905826.86107348
3738,6791184.0
2,1, 1, 1, 0,19, 0.00,60.00,Holiday
135,57105773.81922845
3420,57105773.81922844
3738,6791184.0
2,1, 1, 1, 0,20, 0.00,60.00,Holiday
135,48904615.70955593
3420,48904615.70955593
3738,6791184.0
2,1, 1, 1, 0,21, 0.00,60.00,Holiday
135,48904615.70955593
3420,48904615.70955593
3738,6791184.0
2,1, 1, 1, 0,22, 0.00,60.00,Holiday
135,48904615.70955593
3420,48904615.70955593
3738,6791184.0
2,1, 1, 1, 0,23, 0.00,60.00,Holiday
135,48904615.70955593
3420,48904615.70955593
3738,6791184.0
2,1, 1, 1, 0,24, 0.00,60.00,Holiday
135,48904615.70955593
3420,48904615.70955593
3738,6791184.0
2,2, 1, 2, 0, 1, 0.00,60.00,Monday
135,57609860.1137362
3420,57609860.1137362
3738,6791184.0
2,2, 1, 2, 0, 2, 0.00,60.00,Monday
135,57609860.1137362
3420,57609860.1137362
3738,6791184.0
2,2, 1, 2, 0, 3, 0.00,60.00,Monday
135,57609860.1137362
3420,57609860.1137362
3738,6791184.0
2,2, 1, 2, 0, 4, 0.00,60.00,Monday
135,57609860.1137362
3420,57609860.1137362
3738,6791184.0
2,2, 1, 2, 0, 5, 0.00,60.00,Monday
135,57609860.1137362
3420,57609860.1137362
3738,6791184.0
2,2, 1, 2, 0, 6, 0.00,60.00,Monday
135,57609860.1137362
3420,57609860.1137362
3738,6791184.0
2,2, 1, 2, 0, 7, 0.00,60.00,Monday
135,126636889.97221541
3420,126636889.97221543
3738,6791184.0
2,2, 1, 2, 0, 8, 0.00,60.00,Monday
135,214046621.9084528
3420,214046621.9084528
3738,129832816.66511068
2,2, 1, 2, 0, 9, 0.00,60.00,Monday
135,309061100.9936842
3420,309061100.9936841
3738,75798190.62800136
2,2, 1, 2, 0,10, 0.00,60.00,Monday
135,273497149.3555806
3420,273497149.35558057
3738,45240456.794748485
2,2, 1, 2, 0,11, 0.00,60.00,Monday
135,271825032.0625516
3420,271825032.0625516
3738,11132786.942632746
2,2, 1, 2, 0,12, 0.00,60.00,Monday
135,285317111.9403544
3420,285317111.9403544
3738,20876790.940059703
2,2, 1, 2, 0,13, 0.00,60.00,Monday
135,287827687.7542696
3420,287827687.7542696
3738,31334449.139854968
2,2, 1, 2, 0,14, 0.00,60.00,Monday
135,307530700.46551275
3420,307530700.46551275
3738,26165957.81049616
2,2, 1, 2, 0,15, 0.00,60.00,Monday
135,300823801.4669368
3420,300823801.4669368
3738,16611812.790807886
2,2, 1, 2, 0,16, 0.00,60.00,Monday
135,306268239.4104524
3420,306268239.41045237
3738,19128794.89044494
2,2, 1, 2, 0,17, 0.00,60.00,Monday
135,306352497.54764396
3420,306352497.5476439
3738,20696662.497627776
2,2, 1, 2, 0,18, 0.00,60.00,Monday
135,239252549.35384595
3420,239252549.3538459
3738,15399678.962961763
2,2, 1, 2, 0,19, 0.00,60.00,Monday
135,131837158.01358932
3420,131837158.01358932
3738,26669684.665193133
2,2, 1, 2, 0,20, 0.00,60.00,Monday
135,113771967.00209938
3420,113771967.00209938
3738,37704922.95443418
2,2, 1, 2, 0,21, 0.00,60.00,Monday
135,104387005.27690805
3420,104387005.27690805
3738,50704357.00679393
2,2, 1, 2, 0,22, 0.00,60.00,Monday
135,101080146.96463907
3420,101080146.9646391
3738,51312743.863467105
2,2, 1, 2, 0,23, 0.00,60.00,Monday
135,77772390.65670998
3420,77772390.65670998
3738,6791184.0
2,2, 1, 2, 0,24, 0.00,60.00,Monday
135,72442274.24247962
3420,72442274.24247962
3738,6791184.0
2,3, 1, 3, 0, 1, 0.00,60.00,Tuesday
135,57996196.7332391
3420,57996196.7332391
3738,6791184.0
2,3, 1, 3, 0, 2, 0.00,60.00,Tuesday
135,57609860.1137362
3420,57609860.1137362
3738,6791184.0
2,3, 1, 3, 0, 3, 0.00,60.00,Tuesday
135,57609860.1137362
3420,57609860.1137362
3738,6791184.0
2,3, 1, 3, 0, 4, 0.00,60.00,Tuesday
135,57609860.1137362
3420,57609860.1137362
3738,6791184.0
2,3, 1, 3, 0, 5, 0.00,60.00,Tuesday
135,57609860.1137362
3420,57609860.1137362
3738,6791184.0
2,3, 1, 3, 0, 6, 0.00,60.00,Tuesday
135,57609860.1137362
3420,57609860.1137362
3738,6791184.0
2,3, 1, 3, 0, 7, 0.00,60.00,Tuesday
135,99287757.75515474
3420,99287757.75515476
3738,6791184.0
2,3, 1, 3, 0, 8, 0.00,60.00,Tuesday
135,174457820.79275203
3420,174457820.79275206
3738,83885544.35261986
2,3, 1, 3, 0, 9, 0.00,60.00,Tuesday
135,303088898.23727524
3420,303088898.23727524
3738,42089720.74613355
2,3, 1, 3, 0,10, 0.00,60.00,Tuesday
135,270900464.280115
3420,270900464.2801149
3738,10389055.400050133
2,3, 1, 3, 0,11, 0.00,60.00,Tuesday
135,263842270.7599197
3420,263842270.75991964
3738,8671631.507324021
2,3, 1, 3, 0,12, 0.00,60.00,Tuesday
135,284588823.4950529
3420,284588823.4950529
3738,23615322.35320393
2,3, 1, 3, 0,13, 0.00,60.00,Tuesday
135,303159436.8435605
3420,303159436.84356046
3738,31315074.02262953
2,3, 1, 3, 0,14, 0.00,60.00,Tuesday
135,324396478.83594275
3420,324396478.83594275
3738,26173915.08514266
2,3, 1, 3, 0,15, 0.00,60.00,Tuesday
135,320592559.9449757
3420,320592559.9449757
3738,20136804.314228125
2,3, 1, 3, 0,16, 0.00,60.00,Tuesday
135,324899951.6120825
3420,324899951.6120825
3738,15643590.010575846
2,3, 1, 3, 0,17, 0.00,60.00,Tuesday
135,322019713.4018129
3420,322019713.40181285
3738,20681213.719985824
2,3, 1, 3, 0,18, 0.00,60.00,Tuesday
135,236589889.62759873
3420,236589889.62759873
3738,15458527.600334724
2,3, 1, 3, 0,19, 0.00,60.00,Tuesday
135,130688748.52436662
3420,130688748.52436662
3738,11008632.18467093
2,3, 1, 3, 0,20, 0.00,60.00,Tuesday
135,113569604.38930234
3420,113569604.38930234
3738,11108398.802276846
2,3, 1, 3, 0,21, 0.00,60.00,Tuesday
135,102910895.06207252
3420,102910895.06207252
3738,12714909.385465313
2,3, 1, 3, 0,22, 0.00,60.00,Tuesday
135,98267997.61519502
3420,98267997.61519504
3738,38406274.508901924
2,3, 1, 3, 0,23, 0.00,60.00,Tuesday
135,77772390.65670998
3420,77772390.65670998
3738,6791184.0
2,3, 1, 3, 0,24, 0.00,60.00,Tuesday
135,72442274.24247962
3420,72442274.24247962
3738,6791184.0
2,4, 1, 4, 0, 1, 0.00,60.00,Wednesday
135,57996196.7332391
3420,57996196.7332391
3738,6791184.0
2,4, 1, 4, 0, 2, 0.00,60.00,Wednesday
135,57609860.1137362
3420,57609860.1137362
3738,6791184.0
2,4, 1, 4, 0, 3, 0.00,60.00,Wednesday
135,57609860.1137362
3420,57609860.1137362
3738,6791184.0
2,4, 1, 4, 0, 4, 0.00,60.00,Wednesday
135,57609860.1137362
3420,57609860.1137362
3738,6791184.0
2,4, 1, 4, 0, 5, 0.00,60.00,Wednesday
135,57609860.1137362
3420,57609860.1137362
3738,6791184.0
2,4, 1, 4, 0, 6, 0.00,60.00,Wednesday
135,57609860.1137362
3420,57609860.1137362
3738,6791184.0
2,4, 1, 4, 0, 7, 0.00,60.00,Wednesday
135,94400614.93483596
3420,94400614.93483596
3738,6791184.0
2,4, 1, 4, 0, 8, 0.00,60.00,Wednesday
135,169237388.41007054
3420,169237388.41007057
3738,84262694.73079447
2,4, 1, 4, 0, 9, 0.00,60.00,Wednesday
135,300149467.1851808
3420,300149467.1851807
3738,49128718.6852947
2,4, 1, 4, 0,10, 0.00,60.00,Wednesday
135,266474851.26085505
3420,266474851.26085505
3738,19829761.306077734
2,4, 1, 4, 0,11, 0.00,60.00,Wednesday
135,259164249.5880962
3420,259164249.5880962
3738,12104552.090343129
2,4, 1, 4, 0,12, 0.00,60.00,Wednesday
135,274384625.0394997
3420,274384625.03949964
3738,20883176.175361615
2,4, 1, 4, 0,13, 0.00,60.00,Wednesday
135,293222988.8235422
3420,293222988.82354224
3738,31318173.146925207
2,4, 1, 4, 0,14, 0.00,60.00,Wednesday
135,309723923.98352087
3420,309723923.98352087
3738,26183685.438161563
2,4, 1, 4, 0,15, 0.00,60.00,Wednesday
135,297142911.1321417
3420,297142911.1321417
3738,20137273.561397333
2,4, 1, 4, 0,16, 0.00,60.00,Wednesday
135,292471374.27784705
3420,292471374.277847
3738,15652319.940537943
2,4, 1, 4, 0,17, 0.00,60.00,Wednesday
135,300260544.3594054
3420,300260544.35940534
3738,25317622.056442544
2,4, 1, 4, 0,18, 0.00,60.00,Wednesday
135,232126346.06246513
3420,232126346.06246513
3738,11091904.539927792
2,4, 1, 4, 0,19, 0.00,60.00,Wednesday
135,130718730.62394205
3420,130718730.62394205
3738,11018727.668890554
2,4, 1, 4, 0,20, 0.00,60.00,Wednesday
135,113569604.38930234
3420,113569604.38930234
3738,10924666.776001029
2,4, 1, 4, 0,21, 0.00,60.00,Wednesday
135,102910895.06207252
3420,102910895.06207252
3738,11390205.43270949
2,4, 1, 4, 0,22, 0.00,60.00,Wednesday
135,98267997.61519502
3420,98267997.61519504
3738,18531824.317218453
2,4, 1, 4, 0,23, 0.00,60.00,Wednesday
135,77772390.65670998
3420,77772390.65670998
3738,6791184.0
2,4, 1, 4, 0,24, 0.00,60.00,Wednesday
135,72442274.24247962
3420,72442274.24247962
3738,6791184.0
2,5, 1, 5, 0, 1, 0.00,60.00,Thursday
135,57996196.7332391
3420,57996196.7332391
3738,6791184.0
2,5, 1, 5, 0, 2, 0.00,60.00,Thursday
135,57609860.1137362
3420,57609860.1137362
3738,6791184.0
2,5, 1, 5, 0, 3, 0.00,60.00,Thursday
135,57609860.1137362
3420,57609860.1137362
3738,6791184.0
2,5, 1, 5, 0, 4, 0.00,60.00,Thursday
135,57609860.1137362
3420,57609860.1137362
3738,6791184.0
2,5, 1, 5, 0, 5, 0.00,60.00,Thursday
135,57609860.1137362
3420,57609860.1137362
3738,6791184.0
2,5, 1, 5, 0, 6, 0.00,60.00,Thursday
135,57609860.1137362
3420,57609860.1137362
3738,6791184.0
2,5, 1, 5, 0, 7, 0.00,60.00,Thursday
135,94290155.51494788
3420,94290155.51494788
3738,6791184.0
2,5, 1, 5, 0, 8, 0.00,60.00,Thursday
135,160628804.8002428
3420,160628804.80024284
3738,57853766.75006209
2,5, 1, 5, 0, 9, 0.00,60.00,Thursday
135,301176891.10212386
3420,301176891.10212386
3738,28233688.408516906
2,5, 1, 5, 0,10, 0.00,60.00,Thursday
135,270673729.59848607
3420,270673729.59848607
3738,6791184.0
2,5, 1, 5, 0,11, 0.00,60.00,Thursday
135,283047139.45658123
3420,283047139.4565812
3738,11333066.746581554
2,5, 1, 5, 0,12, 0.00,60.00,Thursday
135,305436266.6144602
3420,305436266.61446005
3738,20890252.978801124
2,5, 1, 5, 0,13, 0.00,60.00,Thursday
135,312928311.2006429
3420,312928311.2006428
3738,31321292.381579187
2,5, 1, 5, 0,14, 0.00,60.00,Thursday
135,337481306.86107427
3420,337481306.8610742
3738,26188075.375275835
2,5, 1, 5, 0,15, 0.00,60.00,Thursday
135,332284326.7101434
3420,332284326.71014327
3738,20206297.649597894
2,5, 1, 5, 0,16, 0.00,60.00,Thursday
135,336218786.0796574
3420,336218786.0796573
3738,15642869.560432706
2,5, 1, 5, 0,17, 0.00,60.00,Thursday
135,334460503.3729347
3420,334460503.37293464
3738,25321673.33772737
2,5, 1, 5, 0,18, 0.00,60.00,Thursday
135,245884376.31218517
3420,245884376.31218517
3738,11098939.68174785
2,5, 1, 5, 0,19, 0.00,60.00,Thursday
135,131855095.50123543
3420,131855095.50123543
3738,11020869.129326541
2,5, 1, 5, 0,20, 0.00,60.00,Thursday
135,113570340.1536153
3420,113570340.1536153
3738,10931232.360473976
2,5, 1, 5, 0,21, 0.00,60.00,Thursday
135,102910895.06207252
3420,102910895.06207252
3738,11290914.952850534
2,5, 1, 5, 0,22, 0.00,60.00,Thursday
135,98267997.61519502
3420,98267997.61519504
3738,20410039.16361019
2,5, 1, 5, 0,23, 0.00,60.00,Thursday
135,77772390.65670998
3420,77772390.65670998
3738,6791184.0
2,5, 1, 5, 0,24, 0.00,60.00,Thursday
135,72442274.24247962
3420,72442274.24247962
3738,6791184.0
2,6, 1, 6, 0, 1, 0.00,60.00,Friday
135,57996196.7332391
3420,57996196.7332391
3738,6791184.0
2,6, 1, 6, 0, 2, 0.00,60.00,Friday
135,57609860.1137362
3420,57609860.1137362
3738,6791184.0
2,6, 1, 6, 0, 3, 0.00,60.00,Friday
135,57609860.1137362
3420,57609860.1137362
3738,6791184.0
2,6, 1, 6, 0, 4, 0.00,60.00,Friday
135,57609860.1137362
3420,57609860.1137362
3738,6791184.0
2,6, 1, 6, 0, 5, 0.00,60.00,Friday
135,57609860.1137362
3420,57609860.1137362
3738,6791184.0
2,6, 1, 6, 0, 6, 0.00,60.00,Friday
135,57609860.1137362
3420,57609860.1137362
3738,6791184.0
2,6, 1, 6, 0, 7, 0.00,60.00,Friday
135,94290155.51494788
3420,94290155.51494788
3738,6791184.0
2,6, 1, 6, 0, 8, 0.00,60.00,Friday
135,173345049.82200938
3420,173345049.82200938
3738,84712407.08623645
2,6, 1, 6, 0, 9, 0.00,60.00,Friday
135,302195596.55035067
3420,302195596.55035067
3738,66919266.58011813
2,6, 1, 6, 0,10, 0.00,60.00,Friday
135,267223952.28522772
3420,267223952.28522766
3738,59841448.087466255
2,6, 1, 6, 0,11, 0.00,60.00,Friday
135,260096771.3493769
3420,260096771.3493769
3738,48124345.52359598
2,6, 1, 6, 0,12, 0.00,60.00,Friday
135,277301908.2303984
3420,277301908.23039836
3738,29424958.82034079
2,6, 1, 6, 0,13, 0.00,60.00,Friday
135,281083842.16817534
3420,281083842.16817534
3738,28924083.873408157
2,6, 1, 6, 0,14, 0.00,60.00,Friday
135,284403873.8227462
3420,284403873.82274616
3738,26517352.662808575
2,6, 1, 6, 0,15, 0.00,60.00,Friday
135,271833916.0337211
3420,271833916.03372097
3738,19911936.900495008
2,6, 1, 6, 0,16, 0.00,60.00,Friday
135,275307153.66277623
3420,275307153.66277623
3738,15652074.454755146
2,6, 1, 6, 0,17, 0.00,60.00,Friday
135,289579036.45218104
3420,289579036.452181
3738,25323807.384891674
2,6, 1, 6, 0,18, 0.00,60.00,Friday
135,240336635.0839247
3420,240336635.0839247
3738,35956924.285456896
2,6, 1, 6, 0,19, 0.00,60.00,Friday
135,131321987.3638742
3420,131321987.3638742
3738,61086612.23324792
2,6, 1, 6, 0,20, 0.00,60.00,Friday
135,113569604.38930234
3420,113569604.38930234
3738,66063087.40288639
2,6, 1, 6, 0,21, 0.00,60.00,Friday
135,102910895.06207252
3420,102910895.06207252
3738,85398150.380847
2,6, 1, 6, 0,22, 0.00,60.00,Friday
135,98323127.62624261
3420,98323127.62624262
3738,86153095.43650497
2,6, 1, 6, 0,23, 0.00,60.00,Friday
135,77772390.65670998
3420,77772390.65670998
3738,6791184.0
2,6, 1, 6, 0,24, 0.00,60.00,Friday
135,72442274.24247962
3420,72442274.24247962
3738,6791184.0
2,7, 1, 7, 0, 1, 0.00,60.00,Saturday
135,46745513.81922844
3420,46745513.81922843
3738,6791184.0
2,7, 1, 7, 0, 2, 0.00,60.00,Saturday
135,46359235.70955593
3420,46359235.709555924
3738,6791184.0
2,7, 1, 7, 0, 3, 0.00,60.00,Saturday
135,46359235.70955593
3420,46359235.709555924
3738,6791184.0
2,7, 1, 7, 0, 4, 0.00,60.00,Saturday
135,46359235.70955593
3420,46359235.709555924
3738,6791184.0
2,7, 1, 7, 0, 5, 0.00,60.00,Saturday
135,46359235.70955593
3420,46359235.709555924
3738,6791184.0
2,7, 1, 7, 0, 6, 0.00,60.00,Saturday
135,46359235.70955593
3420,46359235.709555924
3738,6791184.0
2,7, 1, 7, 0, 7, 0.00,60.00,Saturday
135,106544472.01035088
3420,106544472.01035088
3738,6791184.0
2,7, 1, 7, 0, 8, 0.00,60.00,Saturday
135,128589272.37627171
3420,128589272.37627171
3738,124859224.69658373
2,7, 1, 7, 0, 9, 0.00,60.00,Saturday
135,130115540.75183469
3420,130115540.75183468
3738,107622614.41877687
2,7, 1, 7, 0,10, 0.00,60.00,Saturday
135,134070332.10465312
3420,134070332.1046531
3738,92893634.71419042
2,7, 1, 7, 0,11, 0.00,60.00,Saturday
135,127534115.95370425
3420,127534115.95370425
3738,63595109.30208805
2,7, 1, 7, 0,12, 0.00,60.00,Saturday
135,136775971.98337626
3420,136775971.98337626
3738,26079730.153388925
2,7, 1, 7, 0,13, 0.00,60.00,Saturday
135,96739429.07696864
3420,96739429.07696864
3738,15755071.01995747
2,7, 1, 7, 0,14, 0.00,60.00,Saturday
135,86610892.92758219
3420,86610892.92758219
3738,16831435.12993205
2,7, 1, 7, 0,15, 0.00,60.00,Saturday
135,80777988.06353001
3420,80777988.06353001
3738,14046130.436379846
2,7, 1, 7, 0,16, 0.00,60.00,Saturday
135,76233398.28453368
3420,76233398.28453368
3738,20192977.50939621
2,7, 1, 7, 0,17, 0.00,60.00,Saturday
135,78348518.5832707
3420,78348518.5832707
3738,29011152.169428453
2,7, 1, 7, 0,18, 0.00,60.00,Saturday
135,83077160.33306564
3420,83077160.33306564
3738,44759574.89647053
2,7, 1, 7, 0,19, 0.00,60.00,Saturday
135,66276703.53612528
3420,66276703.53612528
3738,6791184.0
2,7, 1, 7, 0,20, 0.00,60.00,Saturday
135,49290893.81922844
3420,49290893.81922844
3738,6791184.0
2,7, 1, 7, 0,21, 0.00,60.00,Saturday
135,48904615.70955593
3420,48904615.70955593
3738,6791184.0
2,7, 1, 7, 0,22, 0.00,60.00,Saturday
135,48904615.70955593
3420,48904615.70955593
3738,6791184.0
2,7, 1, 7, 0,23, 0.00,60.00,Saturday
135,48904615.70955593
3420,48904615.70955593
3738,6791184.0
2,7, 1, 7, 0,24, 0.00,60.00,Saturday
135,48904615.70955593
3420,48904615.70955593
3738,6791184.0
2,8, 1, 8, 0, 1, 0.00,60.00,Sunday
135,46359235.70955593
3420,46359235.709555924
3738,6791184.0
2,8, 1, 8, 0, 2, 0.00,60.00,Sunday
135,46359235.70955593
3420,46359235.709555924
3738,6791184.0
2,8, 1, 8, 0, 3, 0.00,60.00,Sunday
135,46359235.70955593
3420,46359235.709555924
3738,6791184.0
2,8, 1, 8, 0, 4, 0.00,60.00,Sunday
135,46359235.70955593
3420,46359235.709555924
3738,6791184.0
2,8, 1, 8, 0, 5, 0.00,60.00,Sunday
135,46359235.70955593
3420,46359235.709555924
3738,6791184.0
2,8, 1, 8, 0, 6, 0.00,60.00,Sunday
135,46359235.70955593
3420,46359235.709555924
3738,6791184.0
2,8, 1, 8, 0, 7, 0.00,60.00,Sunday
135,66032185.73006148
3420,66032185.73006148
3738,6791184.0
2,8, 1, 8, 0, 8, 0.00,60.00,Sunday
135,53323580.330645084
3420,53323580.330645084
3738,6791184.0
2,8, 1, 8, 0, 9, 0.00,60.00,Sunday
135,46344166.24829911
3420,46344166.24829911
3738,6791184.0
2,8, 1, 8, 0,10, 0.00,60.00,Sunday
135,46288812.51597283
3420,46288812.51597283
3738,6791184.0
2,8, 1, 8, 0,11, 0.00,60.00,Sunday
135,47482895.52139111
3420,47482895.5213911
3738,6791184.0
2,8, 1, 8, 0,12, 0.00,60.00,Sunday
135,52349815.32008754
3420,52349815.32008754
3738,6791184.0
2,8, 1, 8, 0,13, 0.00,60.00,Sunday
135,54275978.62329497
3420,54275978.62329497
3738,6791184.0
2,8, 1, 8, 0,14, 0.00,60.00,Sunday
135,53777148.28575811
3420,53777148.28575811
3738,6791184.0
2,8, 1, 8, 0,15, 0.00,60.00,Sunday
135,54402934.16200892
3420,54402934.16200892
3738,6791184.0
2,8, 1, 8, 0,16, 0.00,60.00,Sunday
135,54597645.786858544
3420,54597645.786858544
3738,6791184.0
2,8, 1, 8, 0,17, 0.00,60.00,Sunday
135,53143543.05322629
3420,53143543.05322629
3738,6791184.0
2,8, 1, 8, 0,18, 0.00,60.00,Sunday
135,66276671.30593526
3420,66276671.30593526
3738,6791184.0
2,8, 1, 8, 0,19, 0.00,60.00,Sunday
135,57105773.81922845
3420,57105773.81922844
3738,6791184.0
2,8, 1, 8, 0,20, 0.00,60.00,Sunday
135,48904615.70955593
3420,48904615.70955593
3738,6791184.0
2,8, 1, 8, 0,21, 0.00,60.00,Sunday
135,48904615.70955593
3420,48904615.70955593
3738,6791184.0
2,8, 1, 8, 0,22, 0.00,60.00,Sunday
135,48904615.70955593
3420,48904615.70955593
3738,6791184.0
2,8, 1, 8, 0,23, 0.00,60.00,Sunday
135,48904615.70955593
3420,48904615.70955593
3738,6791184.0
2,8, 1, 8, 0,24, 0.00,60.00,Sunday
135,48904615.70955593
3420,48904615.70955593
3738,6791184.0
2,9, 1, 9, 0, 1, 0.00,60.00,Monday
135,57609860.1137362
3420,57609860.1137362
3738,6791184.0
2,9, 1, 9, 0, 2, 0.00,60.00,Monday
135,57609860.1137362
3420,57609860.1137362
3738,6791184.0
2,9, 1, 9, 0, 3, 0.00,60.00,Monday
135,57609860.1137362
3420,57609860.1137362
3738,6791184.0
2,9, 1, 9, 0, 4, 0.00,60.00,Monday
135,57609860.1137362
3420,57609860.1137362
3738,6791184.0
2,9, 1, 9, 0, 5, 0.00,60.00,Monday
135,57609860.1137362
3420,57609860.1137362
3738,6791184.0
2,9, 1, 9, 0, 6, 0.00,60.00,Monday
135,57609860.1137362
3420,57609860.1137362
3738,6791184.0
2,9, 1, 9, 0, 7, 0.00,60.00,Monday
135,122190046.40361768
3420,122190046.4036177
3738,6791184.0
2,9, 1, 9, 0, 8, 0.00,60.00,Monday
135,208701342.29645723
3420,208701342.29645717
3738,127922646.69070637
2,9, 1, 9, 0, 9, 0.00,60.00,Monday
135,314794732.4351731
3420,314794732.43517303
3738,77354704.11267963
2,9, 1, 9, 0,10, 0.00,60.00,Monday
135,276261798.2993697
3420,276261798.2993697
3738,49639011.543776765
2,9, 1, 9, 0,11, 0.00,60.00,Monday
135,273636628.28920686
3420,273636628.2892068
3738,14422010.169643154
2,9, 1, 9, 0,12, 0.00,60.00,Monday
135,292173046.8615618
3420,292173046.8615618
3738,20903863.073050458
2,9, 1, 9, 0,13, 0.00,60.00,Monday
135,293690196.0631917
3420,293690196.06319165
3738,31355574.944980346
2,9, 1, 9, 0,14, 0.00,60.00,Monday
135,311202831.010863
3420,311202831.010863
3738,26214924.87963809
2,9, 1, 9, 0,15, 0.00,60.00,Monday
135,306593031.6619509
3420,306593031.66195077
3738,20131556.203511238
2,9, 1, 9, 0,16, 0.00,60.00,Monday
135,316090129.45694584
3420,316090129.4569458
3738,15659354.637922332
2,9, 1, 9, 0,17, 0.00,60.00,Monday
135,326225830.3548236
3420,326225830.35482347
3738,25336257.09481077
2,9, 1, 9, 0,18, 0.00,60.00,Monday
135,243825315.9643645
3420,243825315.96436447
3738,11233150.711076904
2,9, 1, 9, 0,19, 0.00,60.00,Monday
135,132002382.88198236
3420,132002382.88198236
3738,25461250.17751977
2,9, 1, 9, 0,20, 0.00,60.00,Monday
135,113569604.38930234
3420,113569604.38930234
3738,32737449.992871776
2,9, 1, 9, 0,21, 0.00,60.00,Monday
135,103123985.53019659
3420,103123985.53019659
3738,22900581.02716499
2,9, 1, 9, 0,22, 0.00,60.00,Monday
135,99457374.96485177
3420,99457374.96485178
3738,29374589.918423817
2,9, 1, 9, 0,23, 0.00,60.00,Monday
135,77772390.65670998
3420,77772390.65670998
3738,6791184.0
2,9, 1, 9, 0,24, 0.00,60.00,Monday
135,72442274.24247962
3420,72442274.24247962
3738,6791184.0
2,10, 1,10, 0, 1, 0.00,60.00,Tuesday
135,57996196.7332391
3420,57996196.7332391
3738,6791184.0
2,10, 1,10, 0, 2, 0.00,60.00,Tuesday
135,57609860.1137362
3420,57609860.1137362
3738,6791184.0
2,10, 1,10, 0, 3, 0.00,60.00,Tuesday
135,57609860.1137362
3420,57609860.1137362
3738,6791184.0
2,10, 1,10, 0, 4, 0.00,60.00,Tuesday
135,57609860.1137362
3420,57609860.1137362
3738,6791184.0
2,10, 1,10, 0, 5, 0.00,60.00,Tuesday
135,57609860.1137362
3420,57609860.1137362
3738,6791184.0
2,10, 1,10, 0, 6, 0.00,60.00,Tuesday
135,57609860.1137362
3420,57609860.1137362
3738,6791184.0
2,10, 1,10, 0, 7, 0.00,60.00,Tuesday
135,109230988.95982398
3420,109230988.95982398
3738,6791184.0
2,10, 1,10, 0, 8, 0.00,60.00,Tuesday
135,188012406.36499733
3420,188012406.36499736
3738,140717197.22226742
2,10, 1,10, 0, 9, 0.00,60.00,Tuesday
135,308990767.04625547
3420,308990767.0462555
3738,90842931.0540649
2,10, 1,10, 0,10, 0.00,60.00,Tuesday
135,270996149.99109626
3420,270996149.99109626
3738,69071317.19308804
2,10, 1,10, 0,11, 0.00,60.00,Tuesday
135,263586708.02501196
3420,263586708.02501196
3738,58820857.066262685
2,10, 1,10, 0,12, 0.00,60.00,Tuesday
135,273334494.246779
3420,273334494.246779
3738,69327684.39193454
2,10, 1,10, 0,13, 0.00,60.00,Tuesday
135,289455995.62743247
3420,289455995.62743247
3738,50919802.978494555
2,10, 1,10, 0,14, 0.00,60.00,Tuesday
135,289932076.48693633
3420,289932076.48693633
3738,32662533.530319393
2,10, 1,10, 0,15, 0.00,60.00,Tuesday
135,282169662.2241735
3420,282169662.2241734
3738,16175516.908252155
2,10, 1,10, 0,16, 0.00,60.00,Tuesday
135,283948889.46361065
3420,283948889.4636106
3738,17333331.503268097
2,10, 1,10, 0,17, 0.00,60.00,Tuesday
135,296023116.5850032
3420,296023116.5850032
3738,23586093.877774
2,10, 1,10, 0,18, 0.00,60.00,Tuesday
135,250448229.80579996
3420,250448229.80579993
3738,33708983.65700656
2,10, 1,10, 0,19, 0.00,60.00,Tuesday
135,131020486.23655564
3420,131020486.23655564
3738,70441575.72603671
2,10, 1,10, 0,20, 0.00,60.00,Tuesday
135,113569604.38930234
3420,113569604.38930234
3738,74910314.75484125
2,10, 1,10, 0,21, 0.00,60.00,Tuesday
135,103571829.73092453
3420,103571829.73092455
3738,84553886.40325157
2,10, 1,10, 0,22, 0.00,60.00,Tuesday
135,101366004.39867532
3420,101366004.39867532
3738,97678000.94600067
2,10, 1,10, 0,23, 0.00,60.00,Tuesday
135,77772390.65670998
3420,77772390.65670998
3738,6791184.0
2,10, 1,10, 0,24, 0.00,60.00,Tuesday
135,72442274.24247962
3420,72442274.24247962
3738,6791184.0
2,11, 1,11, 0, 1, 0.00,60.00,Wednesday
135,57996196.7332391
3420,57996196.7332391
3738,6791184.0
2,11, 1,11, 0, 2, 0.00,60.00,Wednesday
135,57609860.1137362
3420,57609860.1137362
3738,6791184.0
2,11, 1,11, 0, 3, 0.00,60.00,Wednesday
135,57609860.1137362
3420,57609860.1137362
3738,6791184.0
2,11, 1,11, 0, 4, 0.00,60.00,Wednesday
135,57609860.1137362
3420,57609860.1137362
3738,6791184.0
2,11, 1,11, 0, 5, 0.00,60.00,Wednesday
135,57609860.1137362
3420,57609860.1137362
3738,6791184.0
2,11, 1,11, 0, 6, 0.00,60.00,Wednesday
135,57609860.1137362
3420,57609860.1137362
3738,6791184.0
2,11, 1,11, 0, 7, 0.00,60.00,Wednesday
135,105511500.62537016
3420,105511500.62537017
3738,6791184.0
2,11, 1,11, 0, 8, 0.00,60.00,Wednesday
135,182987939.28111213
3420,182987939.28111213
3738,82049620.33050813
2,11, 1,11, 0, 9, 0.00,60.00,Wednesday
135,303133084.6248207
3420,303133084.6248207
3738,57368008.278145626
2,11, 1,11, 0,10, 0.00,60.00,Wednesday
135,267646140.37694246
3420,267646140.3769424
3738,41686198.98278403
2,11, 1,11, 0,11, 0.00,60.00,Wednesday
135,262322400.05522764
3420,262322400.0552276
3738,15656667.13491114
2,11, 1,11, 0,12, 0.00,60.00,Wednesday
135,271141631.72884923
3420,271141631.7288492
3738,25987254.408907656
2,11, 1,11, 0,13, 0.00,60.00,Wednesday
135,273520987.97712505
3420,273520987.977125
3738,36686178.66357622
2,11, 1,11, 0,14, 0.00,60.00,Wednesday
135,274242681.86494404
3420,274242681.86494404
3738,27817819.75597935
2,11, 1,11, 0,15, 0.00,60.00,Wednesday
135,260193333.98204765
3420,260193333.98204762
3738,20143092.9889549
2,11, 1,11, 0,16, 0.00,60.00,Wednesday
135,260485698.01894757
3420,260485698.01894757
3738,22633111.27617535
2,11, 1,11, 0,17, 0.00,60.00,Wednesday
135,277586561.08350337
3420,277586561.08350337
3738,51155338.229212984
2,11, 1,11, 0,18, 0.00,60.00,Wednesday
135,242012576.65452123
3420,242012576.65452123
3738,56374733.325178
2,11, 1,11, 0,19, 0.00,60.00,Wednesday
135,131626663.93210962
3420,131626663.93210962
3738,81701644.83460689
2,11, 1,11, 0,20, 0.00,60.00,Wednesday
135,113584911.5798305
3420,113584911.5798305
3738,91323063.98441578
2,11, 1,11, 0,21, 0.00,60.00,Wednesday
135,104124393.80069757
3420,104124393.80069758
3738,91007040.4414797
2,11, 1,11, 0,22, 0.00,60.00,Wednesday
135,101543216.50909881
3420,101543216.50909881
3738,101912405.52352065
2,11, 1,11, 0,23, 0.00,60.00,Wednesday
135,77772390.65670998
3420,77772390.65670998
3738,6791184.0
2,11, 1,11, 0,24, 0.00,60.00,Wednesday
135,72442274.24247962
3420,72442274.24247962
3738,6791184.0
2,12, 1,12, 0, 1, 0.00,60.00,Thursday
135,57996196.7332391
3420,57996196.7332391
3738,6791184.0
2,12, 1,12, 0, 2, 0.00,60.00,Thursday
135,57609860.1137362
3420,57609860.1137362
3738,6791184.0
2,12, 1,12, 0, 3, 0.00,60.00,Thursday
135,57609860.1137362
3420,57609860.1137362
3738,6791184.0
2,12, 1,12, 0, 4, 0.00,60.00,Thursday
135,57609860.1137362
3420,57609860.1137362
3738,6791184.0
2,12, 1,12, 0, 5, 0.00,60.00,Thursday
135,57609860.1137362
3420,57609860.1137362
3738,6791184.0
2,12, 1,12, 0, 6, 0.00,60.00,Thursday
135,57609860.1137362
3420,57609860.1137362
3738,6791184.0
2,12, 1,12, 0, 7, 0.00,60.00,Thursday
135,108967513.81123768
3420,108967513.8112377
3738,6791184.0
2,12, 1,12, 0, 8, 0.00,60.00,Thursday
135,188440734.96267742
3420,188440734.96267742
3738,130816950.75766355
2,12, 1,12, 0, 9, 0.00,60.00,Thursday
135,310682149.8442605
3420,310682149.8442605
3738,85650832.92250207
2,12, 1,12, 0,10, 0.00,60.00,Thursday
135,269647357.8856205
3420,269647357.8856204
3738,73262551.67572756
2,12, 1,12, 0,11, 0.00,60.00,Thursday
135,263548623.4966418
3420,263548623.4966418
3738,56535472.12959352
2,12, 1,12, 0,12, 0.00,60.00,Thursday
135,275692679.2133543
3420,275692679.2133543
3738,49843137.77220365
2,12, 1,12, 0,13, 0.00,60.00,Thursday
135,292438470.04090106
3420,292438470.04090106
3738,42079180.13279096
2,12, 1,12, 0,14, 0.00,60.00,Thursday
135,286480617.307722
3420,286480617.307722
3738,37310234.74841152
2,12, 1,12, 0,15, 0.00,60.00,Thursday
135,270895608.8640257
3420,270895608.8640257
3738,18944387.746539585
2,12, 1,12, 0,16, 0.00,60.00,Thursday
135,270714769.0474307
3420,270714769.0474307
3738,26628598.65942814
2,12, 1,12, 0,17, 0.00,60.00,Thursday
135,289296156.9567779
3420,289296156.9567779
3738,34106394.5395156
2,12, 1,12, 0,18, 0.00,60.00,Thursday
135,251078816.47207317
3420,251078816.47207317
3738,49613269.55028793
2,12, 1,12, 0,19, 0.00,60.00,Thursday
135,132436899.13514535
3420,132436899.13514535
3738,73350748.86041543
2,12, 1,12, 0,20, 0.00,60.00,Thursday
135,113569604.38930234
3420,113569604.38930234
3738,71210367.95806934
2,12, 1,12, 0,21, 0.00,60.00,Thursday
135,103707960.75578296
3420,103707960.75578298
3738,74946313.12067768
2,12, 1,12, 0,22, 0.00,60.00,Thursday
135,100777437.7962147
3420,100777437.79621471
3738,77570359.68834381
2,12, 1,12, 0,23, 0.00,60.00,Thursday
135,77772390.65670998
3420,77772390.65670998
3738,6791184.0
2,12, 1,12, 0,24, 0.00,60.00,Thursday
135,72442274.24247962
3420,72442274.24247962
3738,6791184.0
2,13, 1,13, 0, 1, 0.00,60.00,Friday
135,57996196.7332391
3420,57996196.7332391
3738,6791184.0