Program Version,EnergyPlus, Version 9.6.0-f420c06a69, YMD=2022.07.06 16:21
1,5,Environment Title[],Latitude[deg],Longitude[deg],Time Zone[],Elevation[m]
2,8,Day of Simulation[],Month[],Day of Month[],DST Indicator[1=yes 0=no],Hour[],StartMinute[],EndMinute[],DayType
3,5,Cumulative Day of Simulation[],Month[],Day of Month[],DST Indicator[1=yes 0=no],DayType  ! When Daily Meters Requested
4,2,Cumulative Days of Simulation[],Month[]  ! When Monthly Meters Requested
5,1,Cumulative Days of Simulation[] ! When Run Period Meters Requested
6,1,Calendar Year of Simulation[] ! When Annual Meters Requested
135,1,Electricity:Facility [J] !Hourly
3420,1,ElectricityNet:Facility [J] !Hourly
3738,1,NaturalGas:Facility [J] !Hourly
End of Data Dictionary
1,RUNPERIOD 1,  35.04,-106.62,  -7.00,1619.00
2,1, 1, 1, 0, 1, 0.00,60.00,Holiday
135,46359074.93593144
3420,46359074.93593143
3738,6791184.0
2,1, 1, 1, 0, 2, 0.00,60.00,Holiday
135,46359235.70955593
3420,46359235.709555924
3738,6791184.0
2,1, 1, 1, 0, 3, 0.00,60.00,Holiday
135,46359235.70955593
3420,46359235.709555924
3738,6791184.0
2,1, 1, 1, 0, 4, 0.00,60.00,Holiday
135,46359235.70955593
3420,46359235.709555924
3738,6791184.0
2,1, 1, 1, 0, 5, 0.00,60.00,Holiday
135,46359235.70955593
3420,46359235.709555924
3738,6791184.0
2,1, 1, 1, 0, 6, 0.00,60.00,Holiday
135,46359235.70955593
3420,46359235.709555924
3738,6791184.0
2,1, 1, 1, 0, 7, 0.00,60.00,Holiday
135,66032185.73006148
3420,66032185.73006148
3738,6791184.0
2,1, 1, 1, 0, 8, 0.00,60.00,Holiday
135,50074623.774579875
3420,50074623.774579875
3738,6791184.0
2,1, 1, 1, 0, 9, 0.00,60.00,Holiday
135,46351708.9331394
3420,46351708.9331394
3738,6791184.0
2,1, 1, 1, 0,10, 0.00,60.00,Holiday
135,46288813.17904917
3420,46288813.179049164
3738,6791184.0
2,1, 1, 1, 0,11, 0.00,60.00,Holiday
135,50556028.58634514
3420,50556028.58634514
3738,6791184.0
2,1, 1, 1, 0,12, 0.00,60.00,Holiday
135,53620061.07971074
3420,53620061.07971075
3738,6791184.0
2,1, 1, 1, 0,13, 0.00,60.00,Holiday
135,54251377.4482968
3420,54251377.44829681
3738,6791184.0
2,1, 1, 1, 0,14, 0.00,60.00,Holiday
135,58744815.664830714
3420,58744815.66483073
3738,6791184.0
2,1, 1, 1, 0,15, 0.00,60.00,Holiday
135,64652365.25448359
3420,64652365.25448359
3738,6791184.0
2,1, 1, 1, 0,16, 0.00,60.00,Holiday
135,62671968.53224909
3420,62671968.53224909
3738,6791184.0
2,1, 1, 1, 0,17, 0.00,60.00,Holiday
135,54610940.42094375
3420,54610940.42094375
3738,6791184.0
2,1, 1, 1, 0,18, 0.00,60.00,Holiday
135,66905826.86107348
3420,66905826.86107348
3738,6791184.0
2,1, 1, 1, 0,19, 0.00,60.00,Holiday
135,57105773.81922845
3420,57105773.81922844
3738,6791184.0
2,1, 1, 1, 0,20, 0.00,60.00,Holiday
135,48904615.70955593
3420,48904615.70955593
3738,6791184.0
2,1, 1, 1, 0,21, 0.00,60.00,Holiday
135,48904615.70955593
3420,48904615.70955593
3738,6791184.0
2,1, 1, 1, 0,22, 0.00,60.00,Holiday
135,48904615.70955593
3420,48904615.70955593
3738,6791184.0
2,1, 1, 1, 0,23, 0.00,60.00,Holiday
135,48904615.70955593
3420,48904615.70955593
3738,6791184.0
2,1, 1, 1, 0,24, 0.00,60.00,Holiday
135,48904615.70955593
3420,48904615.70955593
3738,6791184.0
2,2, 1, 2, 0, 1, 0.00,60.00,Monday
135,57609860.1137362
3420,57609860.1137362
3738,6791184.0
2,2, 1, 2, 0, 2, 0.00,60.00,Monday
135,57609860.1137362
3420,57609860.1137362
3738,6791184.0
2,2, 1, 2, 0, 3, 0.00,60.00,Monday
135,57609860.1137362
3420,57609860.1137362
3738,6791184.0
2,2, 1, 2, 0, 4, 0.00,60.00,Monday
135,57609860.1137362
3420,57609860.1137362
3738,6791184.0
2,2, 1, 2, 0, 5, 0.00,60.00,Monday
135,57609860.1137362
3420,57609860.1137362
3738,6791184.0
2,2, 1, 2, 0, 6, 0.00,60.00,Monday
135,57609860.1137362
3420,57609860.1137362
3738,6791184.0
2,2, 1, 2, 0, 7, 0.00,60.00,Monday
135,134878218.9732619
3420,134878218.97326186
3738,6791184.0
2,2, 1, 2, 0, 8, 0.00,60.00,Monday
135,224447349.34681612
3420,224447349.34681612
3738,144051788.3317502
2,2, 1, 2, 0, 9, 0.00,60.00,Monday
135,310113173.5226268
3420,310113173.52262676
3738,88876839.65152809
2,2, 1, 2, 0,10, 0.00,60.00,Monday
135,271365063.6523837
3420,271365063.6523836
3738,60265923.85270449
2,2, 1, 2, 0,11, 0.00,60.00,Monday
135,268042805.41555253
3420,268042805.41555253
3738,22324186.92765486
2,2, 1, 2, 0,12, 0.00,60.00,Monday
135,288256589.4717232
3420,288256589.4717232
3738,20876794.54329522
2,2, 1, 2, 0,13, 0.00,60.00,Monday
135,289626908.83261126
3420,289626908.83261126
3738,31334423.78333511
2,2, 1, 2, 0,14, 0.00,60.00,Monday
135,304560312.7598077
3420,304560312.75980777
3738,26165958.14784857
2,2, 1, 2, 0,15, 0.00,60.00,Monday
135,297207055.59561163
3420,297207055.5956117
3738,16649506.089210246
2,2, 1, 2, 0,16, 0.00,60.00,Monday
135,301765850.1485542
3420,301765850.1485542
3738,19089949.697671723
2,2, 1, 2, 0,17, 0.00,60.00,Monday
135,300883689.7626623
3420,300883689.7626623
3738,20696611.81849547
2,2, 1, 2, 0,18, 0.00,60.00,Monday
135,237763786.45298475
3420,237763786.45298478
3738,22828722.127478585
2,2, 1, 2, 0,19, 0.00,60.00,Monday
135,131185250.1779861
3420,131185250.1779861
3738,54000351.72755138
2,2, 1, 2, 0,20, 0.00,60.00,Monday
135,115788227.31176195
3420,115788227.31176195
3738,68630236.21559957
2,2, 1, 2, 0,21, 0.00,60.00,Monday
135,107180701.07736793
3420,107180701.07736793
3738,80740475.22169581
2,2, 1, 2, 0,22, 0.00,60.00,Monday
135,104935694.04120313
3420,104935694.04120316
3738,82360406.46165311
2,2, 1, 2, 0,23, 0.00,60.00,Monday
135,77772390.65670998
3420,77772390.65670998
3738,6791184.0
2,2, 1, 2, 0,24, 0.00,60.00,Monday
135,72442274.24247962
3420,72442274.24247962
3738,6791184.0
2,3, 1, 3, 0, 1, 0.00,60.00,Tuesday
135,57996196.7332391
3420,57996196.7332391
3738,6791184.0
2,3, 1, 3, 0, 2, 0.00,60.00,Tuesday
135,57609860.1137362
3420,57609860.1137362
3738,6791184.0
2,3, 1, 3, 0, 3, 0.00,60.00,Tuesday
135,57609860.1137362
3420,57609860.1137362
3738,6791184.0
2,3, 1, 3, 0, 4, 0.00,60.00,Tuesday
135,57609860.1137362
3420,57609860.1137362
3738,6791184.0
2,3, 1, 3, 0, 5, 0.00,60.00,Tuesday
135,57609860.1137362
3420,57609860.1137362
3738,6791184.0
2,3, 1, 3, 0, 6, 0.00,60.00,Tuesday
135,57609860.1137362
3420,57609860.1137362
3738,6791184.0
2,3, 1, 3, 0, 7, 0.00,60.00,Tuesday
135,110246891.9321736
3420,110246891.9321736
3738,6791184.0
2,3, 1, 3, 0, 8, 0.00,60.00,Tuesday
135,189787777.19002396
3420,189787777.19002393
3738,127893569.43827754
2,3, 1, 3, 0, 9, 0.00,60.00,Tuesday
135,311735474.6462774
3420,311735474.64627737
3738,74048611.90492582
2,3, 1, 3, 0,10, 0.00,60.00,Tuesday
135,277285498.1859546
3420,277285498.1859546
3738,33473696.454957783
2,3, 1, 3, 0,11, 0.00,60.00,Tuesday
135,276669119.4453627
3420,276669119.44536257
3738,11005409.7709702
2,3, 1, 3, 0,12, 0.00,60.00,Tuesday
135,294510040.65947235
3420,294510040.65947235
3738,23274910.85150368
2,3, 1, 3, 0,13, 0.00,60.00,Tuesday
135,296008760.87337774
3420,296008760.87337774
3738,31313196.53816751
2,3, 1, 3, 0,14, 0.00,60.00,Tuesday
135,312459596.2197046
3420,312459596.2197046
3738,26179341.570204668
2,3, 1, 3, 0,15, 0.00,60.00,Tuesday
135,300132587.72396576
3420,300132587.72396576
3738,20134709.813017763
2,3, 1, 3, 0,16, 0.00,60.00,Tuesday
135,303905456.6083193
3420,303905456.6083192
3738,15642458.513267582
2,3, 1, 3, 0,17, 0.00,60.00,Tuesday
135,306143708.642809
3420,306143708.6428089
3738,20958292.106283188
2,3, 1, 3, 0,18, 0.00,60.00,Tuesday
135,241887659.15678734
3420,241887659.15678728
3738,17408500.555825397
2,3, 1, 3, 0,19, 0.00,60.00,Tuesday
135,131936317.85543132
3420,131936317.85543132
3738,31714708.765812345
2,3, 1, 3, 0,20, 0.00,60.00,Tuesday
135,113569604.38930234
3420,113569604.38930234
3738,51650092.05562477
2,3, 1, 3, 0,21, 0.00,60.00,Tuesday
135,102910895.06207252
3420,102910895.06207252
3738,60710470.68437332
2,3, 1, 3, 0,22, 0.00,60.00,Tuesday
135,99700727.8095243
3420,99700727.80952433
3738,89792459.07201333
2,3, 1, 3, 0,23, 0.00,60.00,Tuesday
135,77772390.65670998
3420,77772390.65670998
3738,6791184.0
2,3, 1, 3, 0,24, 0.00,60.00,Tuesday
135,72442274.24247962
3420,72442274.24247962
3738,6791184.0
2,4, 1, 4, 0, 1, 0.00,60.00,Wednesday
135,57996196.7332391
3420,57996196.7332391
3738,6791184.0
2,4, 1, 4, 0, 2, 0.00,60.00,Wednesday
135,57609860.1137362
3420,57609860.1137362
3738,6791184.0
2,4, 1, 4, 0, 3, 0.00,60.00,Wednesday
135,57609860.1137362
3420,57609860.1137362
3738,6791184.0
2,4, 1, 4, 0, 4, 0.00,60.00,Wednesday
135,57609860.1137362
3420,57609860.1137362
3738,6791184.0
2,4, 1, 4, 0, 5, 0.00,60.00,Wednesday
135,57609860.1137362
3420,57609860.1137362
3738,6791184.0
2,4, 1, 4, 0, 6, 0.00,60.00,Wednesday
135,57609860.1137362
3420,57609860.1137362
3738,6791184.0
2,4, 1, 4, 0, 7, 0.00,60.00,Wednesday
135,106404852.69745946
3420,106404852.69745946
3738,6791184.0
2,4, 1, 4, 0, 8, 0.00,60.00,Wednesday
135,188565720.77044547
3420,188565720.77044547
3738,148199627.5746022
2,4, 1, 4, 0, 9, 0.00,60.00,Wednesday
135,309354701.0787325
3420,309354701.07873243
3738,87295595.8595211
2,4, 1, 4, 0,10, 0.00,60.00,Wednesday
135,271026351.7007154
3420,271026351.7007154
3738,59254591.49081121
2,4, 1, 4, 0,11, 0.00,60.00,Wednesday
135,265318671.5172772
3420,265318671.51727718
3738,39948447.48624557
2,4, 1, 4, 0,12, 0.00,60.00,Wednesday
135,279645244.1066742
3420,279645244.1066742
3738,25541763.37515947
2,4, 1, 4, 0,13, 0.00,60.00,Wednesday
135,285036500.36897314
3420,285036500.36897314
3738,31353602.7696282
2,4, 1, 4, 0,14, 0.00,60.00,Wednesday
135,290663810.7578809
3420,290663810.7578809
3738,26188331.41191818
2,4, 1, 4, 0,15, 0.00,60.00,Wednesday
135,275803080.3492528
3420,275803080.3492528
3738,20161876.09479472
2,4, 1, 4, 0,16, 0.00,60.00,Wednesday
135,275452502.47722626
3420,275452502.47722626
3738,15652007.033122536
2,4, 1, 4, 0,17, 0.00,60.00,Wednesday
135,294950798.18864
3420,294950798.18863994
3738,25318932.623598896
2,4, 1, 4, 0,18, 0.00,60.00,Wednesday
135,251310466.02497888
3420,251310466.02497894
3738,20284459.598648388
2,4, 1, 4, 0,19, 0.00,60.00,Wednesday
135,131928470.78324622
3420,131928470.78324622
3738,37676006.286146
2,4, 1, 4, 0,20, 0.00,60.00,Wednesday
135,113569604.38930234
3420,113569604.38930234
3738,53140296.479713336
2,4, 1, 4, 0,21, 0.00,60.00,Wednesday
135,102910895.06207252
3420,102910895.06207252
3738,67028782.00929898
2,4, 1, 4, 0,22, 0.00,60.00,Wednesday
135,98861508.95876528
3420,98861508.9587653
3738,78838003.44763167
2,4, 1, 4, 0,23, 0.00,60.00,Wednesday
135,77772390.65670998
3420,77772390.65670998
3738,6791184.0
2,4, 1, 4, 0,24, 0.00,60.00,Wednesday
135,72442274.24247962
3420,72442274.24247962
3738,6791184.0
2,5, 1, 5, 0, 1, 0.00,60.00,Thursday
135,57996196.7332391
3420,57996196.7332391
3738,6791184.0
2,5, 1, 5, 0, 2, 0.00,60.00,Thursday
135,57609860.1137362
3420,57609860.1137362
3738,6791184.0
2,5, 1, 5, 0, 3, 0.00,60.00,Thursday
135,57609860.1137362
3420,57609860.1137362
3738,6791184.0
2,5, 1, 5, 0, 4, 0.00,60.00,Thursday
135,57609860.1137362
3420,57609860.1137362
3738,6791184.0
2,5, 1, 5, 0, 5, 0.00,60.00,Thursday
135,57609860.1137362
3420,57609860.1137362
3738,6791184.0
2,5, 1, 5, 0, 6, 0.00,60.00,Thursday
135,57609860.1137362
3420,57609860.1137362
3738,6791184.0
2,5, 1, 5, 0, 7, 0.00,60.00,Thursday
135,100487974.91864672
3420,100487974.91864672
3738,6791184.0
2,5, 1, 5, 0, 8, 0.00,60.00,Thursday
135,178544162.14113203
3420,178544162.14113203
3738,123102393.36512974
2,5, 1, 5, 0, 9, 0.00,60.00,Thursday
135,310348733.1831928
3420,310348733.1831928
3738,65922905.25992911
2,5, 1, 5, 0,10, 0.00,60.00,Thursday
135,278720016.1390722
3420,278720016.1390722
3738,20336720.322275817
2,5, 1, 5, 0,11, 0.00,60.00,Thursday
135,278133837.6498805
3420,278133837.64988047
3738,11332766.89365568
2,5, 1, 5, 0,12, 0.00,60.00,Thursday
135,290749201.7060043
3420,290749201.7060043
3738,20890696.90258397
2,5, 1, 5, 0,13, 0.00,60.00,Thursday
135,291721683.06855345
3420,291721683.06855345
3738,31320925.41498889
2,5, 1, 5, 0,14, 0.00,60.00,Thursday
135,314287515.46213734
3420,314287515.46213734
3738,26189093.67217629
2,5, 1, 5, 0,15, 0.00,60.00,Thursday
135,307636494.323502
3420,307636494.32350194
3738,20204333.34673585
2,5, 1, 5, 0,16, 0.00,60.00,Thursday
135,311443957.7586276
3420,311443957.7586276
3738,15641716.192909468
2,5, 1, 5, 0,17, 0.00,60.00,Thursday
135,314502491.421535
3420,314502491.421535
3738,25321991.983234096
2,5, 1, 5, 0,18, 0.00,60.00,Thursday
135,244961414.3476203
3420,244961414.3476203
3738,11105652.787287572
2,5, 1, 5, 0,19, 0.00,60.00,Thursday
135,132553614.67375831
3420,132553614.67375831
3738,16585417.093094409
2,5, 1, 5, 0,20, 0.00,60.00,Thursday
135,113569604.38930234
3420,113569604.38930234
3738,34519809.77769357
2,5, 1, 5, 0,21, 0.00,60.00,Thursday
135,102910895.06207252
3420,102910895.06207252
3738,46723015.6060955
2,5, 1, 5, 0,22, 0.00,60.00,Thursday
135,98267997.61519502
3420,98267997.61519504
3738,60563958.32323852
2,5, 1, 5, 0,23, 0.00,60.00,Thursday
135,77772390.65670998
3420,77772390.65670998
3738,6791184.0
2,5, 1, 5, 0,24, 0.00,60.00,Thursday
135,72442274.24247962
3420,72442274.24247962
3738,6791184.0
2,6, 1, 6, 0, 1, 0.00,60.00,Friday
135,57996196.7332391
3420,57996196.7332391
3738,6791184.0
2,6, 1, 6, 0, 2, 0.00,60.00,Friday
135,57609860.1137362
3420,57609860.1137362
3738,6791184.0
2,6, 1, 6, 0, 3, 0.00,60.00,Friday
135,57609860.1137362
3420,57609860.1137362
3738,6791184.0
2,6, 1, 6, 0, 4, 0.00,60.00,Friday
135,57609860.1137362
3420,57609860.1137362
3738,6791184.0
2,6, 1, 6, 0, 5, 0.00,60.00,Friday
135,57609860.1137362
3420,57609860.1137362
3738,6791184.0
2,6, 1, 6, 0, 6, 0.00,60.00,Friday
135,57609860.1137362
3420,57609860.1137362
3738,6791184.0
2,6, 1, 6, 0, 7, 0.00,60.00,Friday
135,103562855.27249862
3420,103562855.27249867
3738,6791184.0
2,6, 1, 6, 0, 8, 0.00,60.00,Friday
135,189370951.53917745
3420,189370951.53917742
3738,123910936.65937649
2,6, 1, 6, 0, 9, 0.00,60.00,Friday
135,312934704.21659666
3420,312934704.2165966
3738,87173911.59791599
2,6, 1, 6, 0,10, 0.00,60.00,Friday
135,269924601.6687738
3420,269924601.6687737
3738,79667917.18781792
2,6, 1, 6, 0,11, 0.00,60.00,Friday
135,262457117.17185587
3420,262457117.17185587
3738,69171120.21507427
2,6, 1, 6, 0,12, 0.00,60.00,Friday
135,280250185.41562587
3420,280250185.41562587
3738,46373842.53220961
2,6, 1, 6, 0,13, 0.00,60.00,Friday
135,289510573.6029706
3420,289510573.6029706
3738,27987072.61087165
2,6, 1, 6, 0,14, 0.00,60.00,Friday
135,302345885.04450536
3420,302345885.04450536
3738,27481433.98348496
2,6, 1, 6, 0,15, 0.00,60.00,Friday
135,289087257.5512119
3420,289087257.5512119
3738,18986231.453914598
2,6, 1, 6, 0,16, 0.00,60.00,Friday
135,291898067.00420547
3420,291898067.00420547
3738,15649102.56452397
2,6, 1, 6, 0,17, 0.00,60.00,Friday
135,302465909.10287744
3420,302465909.1028774
3738,25324716.016842097
2,6, 1, 6, 0,18, 0.00,60.00,Friday
135,251042137.43842238
3420,251042137.43842238
3738,52046389.20125587
2,6, 1, 6, 0,19, 0.00,60.00,Friday
135,131515892.80180304
3420,131515892.80180304
3738,78916823.7631593
2,6, 1, 6, 0,20, 0.00,60.00,Friday
135,113595442.4141264
3420,113595442.4141264
3738,82213265.07140915
2,6, 1, 6, 0,21, 0.00,60.00,Friday
135,104625666.57365012
3420,104625666.57365012
3738,99613232.6317531
2,6, 1, 6, 0,22, 0.00,60.00,Friday
135,101375333.28888546
3420,101375333.28888547
3738,98425323.4946832
2,6, 1, 6, 0,23, 0.00,60.00,Friday
135,77772390.65670998
3420,77772390.65670998
3738,6791184.0
2,6, 1, 6, 0,24, 0.00,60.00,Friday
135,72442274.24247962
3420,72442274.24247962
3738,6791184.0
2,7, 1, 7, 0, 1, 0.00,60.00,Saturday
135,46745513.81922844
3420,46745513.81922843
3738,6791184.0
2,7, 1, 7, 0, 2, 0.00,60.00,Saturday
135,46359235.70955593
3420,46359235.709555924
3738,6791184.0
2,7, 1, 7, 0, 3, 0.00,60.00,Saturday
135,46359235.70955593
3420,46359235.709555924
3738,6791184.0
2,7, 1, 7, 0, 4, 0.00,60.00,Saturday
135,46359235.70955593
3420,46359235.709555924
3738,6791184.0
2,7, 1, 7, 0, 5, 0.00,60.00,Saturday
135,46359235.70955593
3420,46359235.709555924
3738,6791184.0
2,7, 1, 7, 0, 6, 0.00,60.00,Saturday
135,46359235.70955593
3420,46359235.709555924
3738,6791184.0
2,7, 1, 7, 0, 7, 0.00,60.00,Saturday
135,113118905.1353196
3420,113118905.1353196
3738,6791184.0
2,7, 1, 7, 0, 8, 0.00,60.00,Saturday
135,143299550.22006148
3420,143299550.2200615
3738,133162370.77714626
2,7, 1, 7, 0, 9, 0.00,60.00,Saturday
135,134836215.65456182
3420,134836215.65456182
3738,115907025.50150886
2,7, 1, 7, 0,10, 0.00,60.00,Saturday
135,136096497.17142773
3420,136096497.1714277
3738,102484993.81215192
2,7, 1, 7, 0,11, 0.00,60.00,Saturday
135,128731278.65541524
3420,128731278.65541524
3738,74733359.04455796
2,7, 1, 7, 0,12, 0.00,60.00,Saturday
135,137973461.1018903
3420,137973461.1018903
3738,34241997.29168382
2,7, 1, 7, 0,13, 0.00,60.00,Saturday
135,97423679.67480965
3420,97423679.67480965
3738,22184611.704207517
2,7, 1, 7, 0,14, 0.00,60.00,Saturday
135,86587768.95554283
3420,86587768.95554285
3738,22727156.00707827
2,7, 1, 7, 0,15, 0.00,60.00,Saturday
135,80777988.06353001
3420,80777988.06353001
3738,20413444.15552323
2,7, 1, 7, 0,16, 0.00,60.00,Saturday
135,76279821.23272486
3420,76279821.23272486
3738,28402479.515102983
2,7, 1, 7, 0,17, 0.00,60.00,Saturday
135,79340485.74265382
3420,79340485.74265383
3738,37399828.56273564
2,7, 1, 7, 0,18, 0.00,60.00,Saturday
135,83077160.33306564
3420,83077160.33306564
3738,51909546.863027744
2,7, 1, 7, 0,19, 0.00,60.00,Saturday
135,66276703.53612528
3420,66276703.53612528
3738,6791184.0
2,7, 1, 7, 0,20, 0.00,60.00,Saturday
135,49290893.81922844
3420,49290893.81922844
3738,6791184.0
2,7, 1, 7, 0,21, 0.00,60.00,Saturday
135,48904615.70955593
3420,48904615.70955593
3738,6791184.0
2,7, 1, 7, 0,22, 0.00,60.00,Saturday
135,48904615.70955593
3420,48904615.70955593
3738,6791184.0
2,7, 1, 7, 0,23, 0.00,60.00,Saturday
135,48904615.70955593
3420,48904615.70955593
3738,6791184.0
2,7, 1, 7, 0,24, 0.00,60.00,Saturday
135,48904615.70955593
3420,48904615.70955593
3738,6791184.0
2,8, 1, 8, 0, 1, 0.00,60.00,Sunday
135,46359235.70955593
3420,46359235.709555924
3738,6791184.0
2,8, 1, 8, 0, 2, 0.00,60.00,Sunday
135,46359235.70955593
3420,46359235.709555924
3738,6791184.0
2,8, 1, 8, 0, 3, 0.00,60.00,Sunday
135,46359235.70955593
3420,46359235.709555924
3738,6791184.0
2,8, 1, 8, 0, 4, 0.00,60.00,Sunday
135,46359235.70955593
3420,46359235.709555924
3738,6791184.0
2,8, 1, 8, 0, 5, 0.00,60.00,Sunday
135,46359235.70955593
3420,46359235.709555924
3738,6791184.0
2,8, 1, 8, 0, 6, 0.00,60.00,Sunday
135,46359235.70955593
3420,46359235.709555924
3738,6791184.0
2,8, 1, 8, 0, 7, 0.00,60.00,Sunday
135,66032185.73006148
3420,66032185.73006148
3738,6791184.0
2,8, 1, 8, 0, 8, 0.00,60.00,Sunday
135,53323580.330645084
3420,53323580.330645084
3738,6791184.0
2,8, 1, 8, 0, 9, 0.00,60.00,Sunday
135,46344166.24829911
3420,46344166.24829911
3738,6791184.0
2,8, 1, 8, 0,10, 0.00,60.00,Sunday
135,46288812.51597283
3420,46288812.51597283
3738,6791184.0
2,8, 1, 8, 0,11, 0.00,60.00,Sunday
135,47481936.97634128
3420,47481936.97634127
3738,6791184.0
2,8, 1, 8, 0,12, 0.00,60.00,Sunday
135,51488687.8228871
3420,51488687.8228871
3738,6791184.0
2,8, 1, 8, 0,13, 0.00,60.00,Sunday
135,53547952.36584681
3420,53547952.365846805
3738,6791184.0
2,8, 1, 8, 0,14, 0.00,60.00,Sunday
135,54336425.67853937
3420,54336425.67853937
3738,6791184.0
2,8, 1, 8, 0,15, 0.00,60.00,Sunday
135,53603894.42651193
3420,53603894.42651193
3738,6791184.0
2,8, 1, 8, 0,16, 0.00,60.00,Sunday
135,54153192.0774107
3420,54153192.0774107
3738,6791184.0
2,8, 1, 8, 0,17, 0.00,60.00,Sunday
135,49057403.79324109
3420,49057403.79324109
3738,6791184.0
2,8, 1, 8, 0,18, 0.00,60.00,Sunday
135,66276671.30593526
3420,66276671.30593526
3738,6791184.0
2,8, 1, 8, 0,19, 0.00,60.00,Sunday
135,57105773.81922845
3420,57105773.81922844
3738,6791184.0
2,8, 1, 8, 0,20, 0.00,60.00,Sunday
135,48904615.70955593
3420,48904615.70955593
3738,6791184.0
2,8, 1, 8, 0,21, 0.00,60.00,Sunday
135,48904615.70955593
3420,48904615.70955593
3738,6791184.0
2,8, 1, 8, 0,22, 0.00,60.00,Sunday
135,48904615.70955593
3420,48904615.70955593
3738,6791184.0
2,8, 1, 8, 0,23, 0.00,60.00,Sunday
135,48904615.70955593
3420,48904615.70955593
3738,6791184.0
2,8, 1, 8, 0,24, 0.00,60.00,Sunday
135,48904615.70955593
3420,48904615.70955593
3738,6791184.0
2,9, 1, 9, 0, 1, 0.00,60.00,Monday
135,57609860.1137362
3420,57609860.1137362
3738,6791184.0
2,9, 1, 9, 0, 2, 0.00,60.00,Monday
135,57609860.1137362
3420,57609860.1137362
3738,6791184.0
2,9, 1, 9, 0, 3, 0.00,60.00,Monday
135,57609860.1137362
3420,57609860.1137362
3738,6791184.0
2,9, 1, 9, 0, 4, 0.00,60.00,Monday
135,57609860.1137362
3420,57609860.1137362
3738,6791184.0
2,9, 1, 9, 0, 5, 0.00,60.00,Monday
135,57609860.1137362
3420,57609860.1137362
3738,6791184.0
2,9, 1, 9, 0, 6, 0.00,60.00,Monday
135,57609860.1137362
3420,57609860.1137362
3738,6791184.0
2,9, 1, 9, 0, 7, 0.00,60.00,Monday
135,130854116.85872215
3420,130854116.85872215
3738,6791184.0
2,9, 1, 9, 0, 8, 0.00,60.00,Monday
135,219872510.64797285
3420,219872510.64797285
3738,134575003.1544665
2,9, 1, 9, 0, 9, 0.00,60.00,Monday
135,314656861.88864857
3420,314656861.88864857
3738,82084725.69626823
2,9, 1, 9, 0,10, 0.00,60.00,Monday
135,274582459.2734144
3420,274582459.2734144
3738,56545245.360877186
2,9, 1, 9, 0,11, 0.00,60.00,Monday
135,270119606.5644133
3420,270119606.56441325
3738,21115928.518304333
2,9, 1, 9, 0,12, 0.00,60.00,Monday
135,288109659.1597506
3420,288109659.1597505
3738,20903860.82488509
2,9, 1, 9, 0,13, 0.00,60.00,Monday
135,291098275.4131558
3420,291098275.41315573
3738,31355574.611584328
2,9, 1, 9, 0,14, 0.00,60.00,Monday
135,307237419.25392723
3420,307237419.25392723
3738,26214925.50577652
2,9, 1, 9, 0,15, 0.00,60.00,Monday
135,301661463.58576524
3420,301661463.5857651
3738,20171152.596185632
2,9, 1, 9, 0,16, 0.00,60.00,Monday
135,310399347.5326416
3420,310399347.53264153
3738,15658121.916787595
2,9, 1, 9, 0,17, 0.00,60.00,Monday
135,320917742.3304612
3420,320917742.3304612
3738,25336592.695536766
2,9, 1, 9, 0,18, 0.00,60.00,Monday
135,242063681.32817176
3420,242063681.32817173
3738,12481566.110722441
2,9, 1, 9, 0,19, 0.00,60.00,Monday
135,131839828.60142523
3420,131839828.60142523
3738,31533673.918942697
2,9, 1, 9, 0,20, 0.00,60.00,Monday
135,113661242.00951326
3420,113661242.00951326
3738,40746572.84542348
2,9, 1, 9, 0,21, 0.00,60.00,Monday
135,104177592.6701043
3420,104177592.67010432
3738,30561737.629989374
2,9, 1, 9, 0,22, 0.00,60.00,Monday
135,101119506.79044542
3420,101119506.79044542
3738,37847798.894344375
2,9, 1, 9, 0,23, 0.00,60.00,Monday
135,77772390.65670998
3420,77772390.65670998
3738,6791184.0
2,9, 1, 9, 0,24, 0.00,60.00,Monday
135,72442274.24247962
3420,72442274.24247962
3738,6791184.0
2,10, 1,10, 0, 1, 0.00,60.00,Tuesday
135,57996196.7332391
3420,57996196.7332391
3738,6791184.0
2,10, 1,10, 0, 2, 0.00,60.00,Tuesday
135,57609860.1137362
3420,57609860.1137362
3738,6791184.0
2,10, 1,10, 0, 3, 0.00,60.00,Tuesday
135,57609860.1137362
3420,57609860.1137362
3738,6791184.0
2,10, 1,10, 0, 4, 0.00,60.00,Tuesday
135,57609860.1137362
3420,57609860.1137362
3738,6791184.0
2,10, 1,10, 0, 5, 0.00,60.00,Tuesday
135,57609860.1137362
3420,57609860.1137362
3738,6791184.0
2,10, 1,10, 0, 6, 0.00,60.00,Tuesday
135,57609860.1137362
3420,57609860.1137362
3738,6791184.0
2,10, 1,10, 0, 7, 0.00,60.00,Tuesday
135,112781300.85026467
3420,112781300.8502647
3738,6791184.0
2,10, 1,10, 0, 8, 0.00,60.00,Tuesday
135,194617842.43329915
3420,194617842.43329912
3738,148777234.75528985
2,10, 1,10, 0, 9, 0.00,60.00,Tuesday
135,308433814.96146005
3420,308433814.96146005
3738,95508885.21490401
2,10, 1,10, 0,10, 0.00,60.00,Tuesday
135,269197632.4407832
3420,269197632.44078314
3738,74261418.11719972
2,10, 1,10, 0,11, 0.00,60.00,Tuesday
135,261693321.9180943
3420,261693321.91809428
3738,64105094.19171366
2,10, 1,10, 0,12, 0.00,60.00,Tuesday
135,271490396.1477087
3420,271490396.14770865
3738,74844778.41395469
2,10, 1,10, 0,13, 0.00,60.00,Tuesday
135,290210160.86994135
3420,290210160.86994135
3738,56283971.0364546
2,10, 1,10, 0,14, 0.00,60.00,Tuesday
135,287657042.86492133
3420,287657042.86492133
3738,35207022.96243114
2,10, 1,10, 0,15, 0.00,60.00,Tuesday
135,279644388.4097144
3420,279644388.4097144
3738,16100752.079721354
2,10, 1,10, 0,16, 0.00,60.00,Tuesday
135,281771043.8043512
3420,281771043.80435115
3738,17417396.34523774
2,10, 1,10, 0,17, 0.00,60.00,Tuesday
135,293778218.25488555
3420,293778218.25488555
3738,23498894.435019016
2,10, 1,10, 0,18, 0.00,60.00,Tuesday
135,250341612.0450317
3420,250341612.0450317
3738,38264766.91664843
2,10, 1,10, 0,19, 0.00,60.00,Tuesday
135,130970805.99585721
3420,130970805.99585721
3738,78054452.27179275
2,10, 1,10, 0,20, 0.00,60.00,Tuesday
135,113838351.75596823
3420,113838351.75596823
3738,81945199.57192765
2,10, 1,10, 0,21, 0.00,60.00,Tuesday
135,104645857.27192077
3420,104645857.2719208
3738,91411823.51963718
2,10, 1,10, 0,22, 0.00,60.00,Tuesday
135,103565487.37088668
3420,103565487.3708867
3738,104108142.73939925
2,10, 1,10, 0,23, 0.00,60.00,Tuesday
135,77772390.65670998
3420,77772390.65670998
3738,6791184.0
2,10, 1,10, 0,24, 0.00,60.00,Tuesday
135,72442274.24247962
3420,72442274.24247962
3738,6791184.0
2,11, 1,11, 0, 1, 0.00,60.00,Wednesday
135,57996196.7332391
3420,57996196.7332391
3738,6791184.0
2,11, 1,11, 0, 2, 0.00,60.00,Wednesday
135,57609860.1137362
3420,57609860.1137362
3738,6791184.0
2,11, 1,11, 0, 3, 0.00,60.00,Wednesday
135,57609860.1137362
3420,57609860.1137362
3738,6791184.0
2,11, 1,11, 0, 4, 0.00,60.00,Wednesday
135,57609860.1137362
3420,57609860.1137362
3738,6791184.0
2,11, 1,11, 0, 5, 0.00,60.00,Wednesday
135,57609860.1137362
3420,57609860.1137362
3738,6791184.0
2,11, 1,11, 0, 6, 0.00,60.00,Wednesday
135,57609860.1137362
3420,57609860.1137362
3738,6791184.0
2,11, 1,11, 0, 7, 0.00,60.00,Wednesday
135,108174110.85530937
3420,108174110.8553094
3738,6791184.0
2,11, 1,11, 0, 8, 0.00,60.00,Wednesday
135,188535411.17271808
3420,188535411.17271808
3738,91025231.16528334
2,11, 1,11, 0, 9, 0.00,60.00,Wednesday
135,304216050.8596117
3420,304216050.8596117
3738,62274998.08470724
2,11, 1,11, 0,10, 0.00,60.00,Wednesday
135,267280837.68638211
3420,267280837.68638211
3738,48099447.256458595
2,11, 1,11, 0,11, 0.00,60.00,Wednesday
135,261500806.70817673
3420,261500806.70817667
3738,20335343.444696106
2,11, 1,11, 0,12, 0.00,60.00,Wednesday
135,270150349.3365233
3420,270150349.3365233
3738,29661047.48143526
2,11, 1,11, 0,13, 0.00,60.00,Wednesday
135,275038395.76425433
3420,275038395.76425433
3738,42460815.045548856
2,11, 1,11, 0,14, 0.00,60.00,Wednesday
135,273842783.84714067
3420,273842783.8471407
3738,30858464.68906585
2,11, 1,11, 0,15, 0.00,60.00,Wednesday
135,259766593.15290534
3420,259766593.1529053
3738,22670578.198880758
2,11, 1,11, 0,16, 0.00,60.00,Wednesday
135,260107438.03733218
3420,260107438.03733218
3738,28407535.6043348
2,11, 1,11, 0,17, 0.00,60.00,Wednesday
135,277226348.6578076
3420,277226348.6578075
3738,56856821.64972696
2,11, 1,11, 0,18, 0.00,60.00,Wednesday
135,241961365.54750478
3420,241961365.54750478
3738,60718318.93335751
2,11, 1,11, 0,19, 0.00,60.00,Wednesday
135,131773392.31438345
3420,131773392.31438345
3738,89122944.84895846
2,11, 1,11, 0,20, 0.00,60.00,Wednesday
135,114015730.84884766
3420,114015730.84884766
3738,98160577.67016654
2,11, 1,11, 0,21, 0.00,60.00,Wednesday
135,105348897.57195151
3420,105348897.57195152
3738,97699443.73293298
2,11, 1,11, 0,22, 0.00,60.00,Wednesday
135,103376308.699857
3420,103376308.699857
3738,108273265.24824634
2,11, 1,11, 0,23, 0.00,60.00,Wednesday
135,77772390.65670998
3420,77772390.65670998
3738,6791184.0
2,11, 1,11, 0,24, 0.00,60.00,Wednesday
135,72442274.24247962
3420,72442274.24247962
3738,6791184.0
2,12, 1,12, 0, 1, 0.00,60.00,Thursday
135,57996196.7332391
3420,57996196.7332391
3738,6791184.0
2,12, 1,12, 0, 2, 0.00,60.00,Thursday
135,57609860.1137362
3420,57609860.1137362
3738,6791184.0
2,12, 1,12, 0, 3, 0.00,60.00,Thursday
135,57609860.1137362
3420,57609860.1137362
3738,6791184.0
2,12, 1,12, 0, 4, 0.00,60.00,Thursday
135,57609860.1137362
3420,57609860.1137362
3738,6791184.0
2,12, 1,12, 0, 5, 0.00,60.00,Thursday
135,57609860.1137362
3420,57609860.1137362
3738,6791184.0
2,12, 1,12, 0, 6, 0.00,60.00,Thursday
135,57609860.1137362
3420,57609860.1137362
3738,6791184.0
2,12, 1,12, 0, 7, 0.00,60.00,Thursday
135,111921353.99578866
3420,111921353.99578866
3738,6791184.0
2,12, 1,12, 0, 8, 0.00,60.00,Thursday
135,193821144.10067332
3420,193821144.10067332
3738,138855728.54470095
2,12, 1,12, 0, 9, 0.00,60.00,Thursday
135,310962083.7620719
3420,310962083.7620719
3738,90090624.27486065
2,12, 1,12, 0,10, 0.00,60.00,Thursday
135,268717741.0656504
3420,268717741.0656504
3738,77499655.95128122
2,12, 1,12, 0,11, 0.00,60.00,Thursday
135,262239067.33343986
3420,262239067.33343986
3738,61283229.86481584
2,12, 1,12, 0,12, 0.00,60.00,Thursday
135,274352697.542532
3420,274352697.54253197
3738,55475962.476618476
2,12, 1,12, 0,13, 0.00,60.00,Thursday
135,293208668.2848237
3420,293208668.2848237
3738,47688099.71317578
2,12, 1,12, 0,14, 0.00,60.00,Thursday
135,285137068.8629102
3420,285137068.8629102
3738,43113779.79932819
2,12, 1,12, 0,15, 0.00,60.00,Thursday
135,269674000.9921858
3420,269674000.9921857
3738,24258896.843222786
2,12, 1,12, 0,16, 0.00,60.00,Thursday
135,269493678.59511495
3420,269493678.5951149
3738,32387322.347500846
2,12, 1,12, 0,17, 0.00,60.00,Thursday
135,288093834.08413833
3420,288093834.08413833
3738,39566223.09391348
2,12, 1,12, 0,18, 0.00,60.00,Thursday
135,250021800.25020176
3420,250021800.25020173
3738,53928686.24476442
2,12, 1,12, 0,19, 0.00,60.00,Thursday
135,133629499.93068725
3420,133629499.93068722
3738,80485569.62947717
2,12, 1,12, 0,20, 0.00,60.00,Thursday
135,113761279.90729386
3420,113761279.90729386
3738,77930563.98637426
2,12, 1,12, 0,21, 0.00,60.00,Thursday
135,104959562.8987686
3420,104959562.89876863
3738,81594156.82341711
2,12, 1,12, 0,22, 0.00,60.00,Thursday
135,102181244.69374004
3420,102181244.69374004
3738,83967547.56014043
2,12, 1,12, 0,23, 0.00,60.00,Thursday
135,77772390.65670998
3420,77772390.65670998
3738,6791184.0
2,12, 1,12, 0,24, 0.00,60.00,Thursday
135,72442274.24247962
3420,72442274.24247962
3738,6791184.0
2,13, 1,13, 0, 1, 0.00,60.00,Friday
135,57996196.7332391
3420,57996196.7332391
3738,6791184.0