Program Version,EnergyPlus, Version 9.6.0-f420c06a69, YMD=2022.07.16 15:04
1,5,Environment Title[],Latitude[deg],Longitude[deg],Time Zone[],Elevation[m]
2,8,Day of Simulation[],Month[],Day of Month[],DST Indicator[1=yes 0=no],Hour[],StartMinute[],EndMinute[],DayType
3,5,Cumulative Day of Simulation[],Month[],Day of Month[],DST Indicator[1=yes 0=no],DayType  ! When Daily Meters Requested
4,2,Cumulative Days of Simulation[],Month[]  ! When Monthly Meters Requested
5,1,Cumulative Days of Simulation[] ! When Run Period Meters Requested
6,1,Calendar Year of Simulation[] ! When Annual Meters Requested
135,1,Electricity:Facility [J] !Hourly
3420,1,ElectricityNet:Facility [J] !Hourly
3738,1,NaturalGas:Facility [J] !Hourly
End of Data Dictionary
1,RUNPERIOD 1,  35.04,-106.62,  -7.00,1619.00
2,1, 1, 1, 0, 1, 0.00,60.00,Holiday
135,46359074.93593144
3420,46359074.93593143
3738,6791184.0
2,1, 1, 1, 0, 2, 0.00,60.00,Holiday
135,46359235.70955593
3420,46359235.709555924
3738,6791184.0
2,1, 1, 1, 0, 3, 0.00,60.00,Holiday
135,46359235.70955593
3420,46359235.709555924
3738,6791184.0
2,1, 1, 1, 0, 4, 0.00,60.00,Holiday
135,46359235.70955593
3420,46359235.709555924
3738,6791184.0
2,1, 1, 1, 0, 5, 0.00,60.00,Holiday
135,46359235.70955593
3420,46359235.709555924
3738,6791184.0
2,1, 1, 1, 0, 6, 0.00,60.00,Holiday
135,46359235.70955593
3420,46359235.709555924
3738,6791184.0
2,1, 1, 1, 0, 7, 0.00,60.00,Holiday
135,66032185.73006148
3420,66032185.73006148
3738,6791184.0
2,1, 1, 1, 0, 8, 0.00,60.00,Holiday
135,50074623.774579875
3420,50074623.774579875
3738,6791184.0
2,1, 1, 1, 0, 9, 0.00,60.00,Holiday
135,46351708.9331394
3420,46351708.9331394
3738,6791184.0
2,1, 1, 1, 0,10, 0.00,60.00,Holiday
135,46288813.17904917
3420,46288813.179049164
3738,6791184.0
2,1, 1, 1, 0,11, 0.00,60.00,Holiday
135,51149014.50787013
3420,51149014.50787013
3738,6791184.0
2,1, 1, 1, 0,12, 0.00,60.00,Holiday
135,53542591.30173427
3420,53542591.30173427
3738,6791184.0
2,1, 1, 1, 0,13, 0.00,60.00,Holiday
135,54827857.64153222
3420,54827857.64153222
3738,6791184.0
2,1, 1, 1, 0,14, 0.00,60.00,Holiday
135,61196507.52122828
3420,61196507.5212283
3738,6791184.0
2,1, 1, 1, 0,15, 0.00,60.00,Holiday
135,67239153.60782859
3420,67239153.60782859
3738,6791184.0
2,1, 1, 1, 0,16, 0.00,60.00,Holiday
135,64721412.807741076
3420,64721412.80774109
3738,6791184.0
2,1, 1, 1, 0,17, 0.00,60.00,Holiday
135,55473596.479658276
3420,55473596.479658276
3738,6791184.0
2,1, 1, 1, 0,18, 0.00,60.00,Holiday
135,66905826.86107348
3420,66905826.86107348
3738,6791184.0
2,1, 1, 1, 0,19, 0.00,60.00,Holiday
135,57105773.81922845
3420,57105773.81922844
3738,6791184.0
2,1, 1, 1, 0,20, 0.00,60.00,Holiday
135,48904615.70955593
3420,48904615.70955593
3738,6791184.0
2,1, 1, 1, 0,21, 0.00,60.00,Holiday
135,48904615.70955593
3420,48904615.70955593
3738,6791184.0
2,1, 1, 1, 0,22, 0.00,60.00,Holiday
135,48904615.70955593
3420,48904615.70955593
3738,6791184.0
2,1, 1, 1, 0,23, 0.00,60.00,Holiday
135,48904615.70955593
3420,48904615.70955593
3738,6791184.0
2,1, 1, 1, 0,24, 0.00,60.00,Holiday
135,48904615.70955593
3420,48904615.70955593
3738,6791184.0
2,2, 1, 2, 0, 1, 0.00,60.00,Monday
135,57609860.1137362
3420,57609860.1137362
3738,6791184.0
2,2, 1, 2, 0, 2, 0.00,60.00,Monday
135,57609860.1137362
3420,57609860.1137362
3738,6791184.0
2,2, 1, 2, 0, 3, 0.00,60.00,Monday
135,57609860.1137362
3420,57609860.1137362
3738,6791184.0
2,2, 1, 2, 0, 4, 0.00,60.00,Monday
135,57609860.1137362
3420,57609860.1137362
3738,6791184.0
2,2, 1, 2, 0, 5, 0.00,60.00,Monday
135,57609860.1137362
3420,57609860.1137362
3738,6791184.0
2,2, 1, 2, 0, 6, 0.00,60.00,Monday
135,57609860.1137362
3420,57609860.1137362
3738,6791184.0
2,2, 1, 2, 0, 7, 0.00,60.00,Monday
135,127996825.63454857
3420,127996825.63454857
3738,6791184.0
2,2, 1, 2, 0, 8, 0.00,60.00,Monday
135,215776918.25572556
3420,215776918.25572553
3738,138020718.205081
2,2, 1, 2, 0, 9, 0.00,60.00,Monday
135,308779831.98790205
3420,308779831.98790205
3738,82873177.66038454
2,2, 1, 2, 0,10, 0.00,60.00,Monday
135,272391633.6877966
3420,272391633.68779653
3738,53951717.89646106
2,2, 1, 2, 0,11, 0.00,60.00,Monday
135,270626858.73905873
3420,270626858.73905873
3738,16290746.029742379
2,2, 1, 2, 0,12, 0.00,60.00,Monday
135,289695713.59204376
3420,289695713.59204376
3738,20876788.629584327
2,2, 1, 2, 0,13, 0.00,60.00,Monday
135,291132855.59700644
3420,291132855.59700644
3738,31334466.06780298
2,2, 1, 2, 0,14, 0.00,60.00,Monday
135,308021486.08789706
3420,308021486.08789706
3738,26165957.600102253
2,2, 1, 2, 0,15, 0.00,60.00,Monday
135,301222934.61526537
3420,301222934.6152653
3738,16608219.527592774
2,2, 1, 2, 0,16, 0.00,60.00,Monday
135,306260640.67507416
3420,306260640.67507416
3738,19132384.55082509
2,2, 1, 2, 0,17, 0.00,60.00,Monday
135,303775473.3403636
3420,303775473.34036356
3738,20696667.15605069
2,2, 1, 2, 0,18, 0.00,60.00,Monday
135,238144633.47194412
3420,238144633.4719441
3738,19995254.898005724
2,2, 1, 2, 0,19, 0.00,60.00,Monday
135,130915817.59055667
3420,130915817.59055667
3738,46965666.73843971
2,2, 1, 2, 0,20, 0.00,60.00,Monday
135,114591120.3768551
3420,114591120.3768551
3738,60485811.603654675
2,2, 1, 2, 0,21, 0.00,60.00,Monday
135,105863576.09982648
3420,105863576.09982648
3738,74237317.72791636
2,2, 1, 2, 0,22, 0.00,60.00,Monday
135,103011114.57527736
3420,103011114.57527736
3738,75836107.61545125
2,2, 1, 2, 0,23, 0.00,60.00,Monday
135,77772390.65670998
3420,77772390.65670998
3738,6791184.0
2,2, 1, 2, 0,24, 0.00,60.00,Monday
135,72442274.24247962
3420,72442274.24247962
3738,6791184.0
2,3, 1, 3, 0, 1, 0.00,60.00,Tuesday
135,57996196.7332391
3420,57996196.7332391
3738,6791184.0
2,3, 1, 3, 0, 2, 0.00,60.00,Tuesday
135,57609860.1137362
3420,57609860.1137362
3738,6791184.0
2,3, 1, 3, 0, 3, 0.00,60.00,Tuesday
135,57609860.1137362
3420,57609860.1137362
3738,6791184.0
2,3, 1, 3, 0, 4, 0.00,60.00,Tuesday
135,57609860.1137362
3420,57609860.1137362
3738,6791184.0
2,3, 1, 3, 0, 5, 0.00,60.00,Tuesday
135,57609860.1137362
3420,57609860.1137362
3738,6791184.0
2,3, 1, 3, 0, 6, 0.00,60.00,Tuesday
135,57609860.1137362
3420,57609860.1137362
3738,6791184.0
2,3, 1, 3, 0, 7, 0.00,60.00,Tuesday
135,106931257.37472215
3420,106931257.37472212
3738,6791184.0
2,3, 1, 3, 0, 8, 0.00,60.00,Tuesday
135,184734841.1423446
3420,184734841.1423446
3738,120832959.7297068
2,3, 1, 3, 0, 9, 0.00,60.00,Tuesday
135,312265575.62436616
3420,312265575.62436616
3738,68892671.80928904
2,3, 1, 3, 0,10, 0.00,60.00,Tuesday
135,279812349.24392164
3420,279812349.24392164
3738,27777781.23698724
2,3, 1, 3, 0,11, 0.00,60.00,Tuesday
135,278334900.0313619
3420,278334900.0313619
3738,9295933.261404604
2,3, 1, 3, 0,12, 0.00,60.00,Tuesday
135,290684622.63813865
3420,290684622.63813865
3738,23542259.622301124
2,3, 1, 3, 0,13, 0.00,60.00,Tuesday
135,290073427.60944575
3420,290073427.60944575
3738,31314670.33408197
2,3, 1, 3, 0,14, 0.00,60.00,Tuesday
135,311174944.21262676
3420,311174944.21262676
3738,26173987.99966827
2,3, 1, 3, 0,15, 0.00,60.00,Tuesday
135,304966823.9567958
3420,304966823.95679575
3738,20136318.258841217
2,3, 1, 3, 0,16, 0.00,60.00,Tuesday
135,309054752.76813424
3420,309054752.7681342
3738,15643327.510827746
2,3, 1, 3, 0,17, 0.00,60.00,Tuesday
135,309940042.67176265
3420,309940042.67176265
3738,20680908.056054913
2,3, 1, 3, 0,18, 0.00,60.00,Tuesday
135,242680258.7493111
3420,242680258.7493111
3738,16251871.944199989
2,3, 1, 3, 0,19, 0.00,60.00,Tuesday
135,132069713.17156494
3420,132069713.17156494
3738,26106541.95556266
2,3, 1, 3, 0,20, 0.00,60.00,Tuesday
135,113569604.38930234
3420,113569604.38930234
3738,44462398.210499495
2,3, 1, 3, 0,21, 0.00,60.00,Tuesday
135,102910895.06207252
3420,102910895.06207252
3738,53926673.13748605
2,3, 1, 3, 0,22, 0.00,60.00,Tuesday
135,98770175.473992
3420,98770175.47399203
3738,83388411.44147202
2,3, 1, 3, 0,23, 0.00,60.00,Tuesday
135,77772390.65670998
3420,77772390.65670998
3738,6791184.0
2,3, 1, 3, 0,24, 0.00,60.00,Tuesday
135,72442274.24247962
3420,72442274.24247962
3738,6791184.0
2,4, 1, 4, 0, 1, 0.00,60.00,Wednesday
135,57996196.7332391
3420,57996196.7332391
3738,6791184.0
2,4, 1, 4, 0, 2, 0.00,60.00,Wednesday
135,57609860.1137362
3420,57609860.1137362
3738,6791184.0
2,4, 1, 4, 0, 3, 0.00,60.00,Wednesday
135,57609860.1137362
3420,57609860.1137362
3738,6791184.0
2,4, 1, 4, 0, 4, 0.00,60.00,Wednesday
135,57609860.1137362
3420,57609860.1137362
3738,6791184.0
2,4, 1, 4, 0, 5, 0.00,60.00,Wednesday
135,57609860.1137362
3420,57609860.1137362
3738,6791184.0
2,4, 1, 4, 0, 6, 0.00,60.00,Wednesday
135,57609860.1137362
3420,57609860.1137362
3738,6791184.0
2,4, 1, 4, 0, 7, 0.00,60.00,Wednesday
135,103755454.93082415
3420,103755454.93082415
3738,6791184.0
2,4, 1, 4, 0, 8, 0.00,60.00,Wednesday
135,184491004.4643848
3420,184491004.4643848
3738,139683752.67577988
2,4, 1, 4, 0, 9, 0.00,60.00,Wednesday
135,309257276.77714854
3420,309257276.7771486
3738,83095029.78652705
2,4, 1, 4, 0,10, 0.00,60.00,Wednesday
135,272185113.924669
3420,272185113.924669
3738,54652377.40591665
2,4, 1, 4, 0,11, 0.00,60.00,Wednesday
135,266550562.08486056
3420,266550562.0848605
3738,34899162.16140272
2,4, 1, 4, 0,12, 0.00,60.00,Wednesday
135,281292242.9374631
3420,281292242.937463
3738,23607985.38142342
2,4, 1, 4, 0,13, 0.00,60.00,Wednesday
135,285973572.2964015
3420,285973572.29640144
3738,31348798.230013758
2,4, 1, 4, 0,14, 0.00,60.00,Wednesday
135,292517489.6756735
3420,292517489.6756735
3738,26188383.070569854
2,4, 1, 4, 0,15, 0.00,60.00,Wednesday
135,278936139.3508474
3420,278936139.3508474
3738,20127398.59969132
2,4, 1, 4, 0,16, 0.00,60.00,Wednesday
135,276955145.5425564
3420,276955145.54255635
3738,15653031.314340789
2,4, 1, 4, 0,17, 0.00,60.00,Wednesday
135,295961521.3481208
3420,295961521.34812075
3738,25318407.256185487
2,4, 1, 4, 0,18, 0.00,60.00,Wednesday
135,249790251.11624223
3420,249790251.11624217
3738,14864476.667762557
2,4, 1, 4, 0,19, 0.00,60.00,Wednesday
135,132103039.86723197
3420,132103039.86723197
3738,28501881.551320106
2,4, 1, 4, 0,20, 0.00,60.00,Wednesday
135,113569604.38930234
3420,113569604.38930234
3738,41762766.323415086
2,4, 1, 4, 0,21, 0.00,60.00,Wednesday
135,102910895.06207252
3420,102910895.06207252
3738,55301881.79344201
2,4, 1, 4, 0,22, 0.00,60.00,Wednesday
135,98267997.61519502
3420,98267997.61519504
3738,67012577.12525496
2,4, 1, 4, 0,23, 0.00,60.00,Wednesday
135,77772390.65670998
3420,77772390.65670998
3738,6791184.0
2,4, 1, 4, 0,24, 0.00,60.00,Wednesday
135,72442274.24247962
3420,72442274.24247962
3738,6791184.0
2,5, 1, 5, 0, 1, 0.00,60.00,Thursday
135,57996196.7332391
3420,57996196.7332391
3738,6791184.0
2,5, 1, 5, 0, 2, 0.00,60.00,Thursday
135,57609860.1137362
3420,57609860.1137362
3738,6791184.0
2,5, 1, 5, 0, 3, 0.00,60.00,Thursday
135,57609860.1137362
3420,57609860.1137362
3738,6791184.0
2,5, 1, 5, 0, 4, 0.00,60.00,Thursday
135,57609860.1137362
3420,57609860.1137362
3738,6791184.0
2,5, 1, 5, 0, 5, 0.00,60.00,Thursday
135,57609860.1137362
3420,57609860.1137362
3738,6791184.0
2,5, 1, 5, 0, 6, 0.00,60.00,Thursday
135,57609860.1137362
3420,57609860.1137362
3738,6791184.0
2,5, 1, 5, 0, 7, 0.00,60.00,Thursday
135,97735623.67105103
3420,97735623.67105103
3738,6791184.0
2,5, 1, 5, 0, 8, 0.00,60.00,Thursday
135,173100768.07654965
3420,173100768.07654962
3738,110910429.20140871
2,5, 1, 5, 0, 9, 0.00,60.00,Thursday
135,311205020.1220606
3420,311205020.12206054
3738,58843916.725474425
2,5, 1, 5, 0,10, 0.00,60.00,Thursday
135,280658060.50632495
3420,280658060.50632495
3738,15412325.557579566
2,5, 1, 5, 0,11, 0.00,60.00,Thursday
135,279876095.09554434
3420,279876095.09554434
3738,11332836.2691178
2,5, 1, 5, 0,12, 0.00,60.00,Thursday
135,292294718.72825456
3420,292294718.72825456
3738,20890598.102329075
2,5, 1, 5, 0,13, 0.00,60.00,Thursday
135,295353791.6656956
3420,295353791.6656956
3738,31321004.3765677
2,5, 1, 5, 0,14, 0.00,60.00,Thursday
135,318746652.7452575
3420,318746652.7452575
3738,26189196.321816523
2,5, 1, 5, 0,15, 0.00,60.00,Thursday
135,311332930.0420598
3420,311332930.0420597
3738,20204811.267476268
2,5, 1, 5, 0,16, 0.00,60.00,Thursday
135,314403129.1478583
3420,314403129.14785826
3738,15641997.046927605
2,5, 1, 5, 0,17, 0.00,60.00,Thursday
135,316310162.82106143
3420,316310162.8210614
3738,25321918.261626165
2,5, 1, 5, 0,18, 0.00,60.00,Thursday
135,245432871.2871262
3420,245432871.28712618
3738,11104746.821362307
2,5, 1, 5, 0,19, 0.00,60.00,Thursday
135,132625450.4548343
3420,132625450.4548343
3738,17967609.249094546
2,5, 1, 5, 0,20, 0.00,60.00,Thursday
135,113594912.8740094
3420,113594912.8740094
3738,38317536.76830168
2,5, 1, 5, 0,21, 0.00,60.00,Thursday
135,102910895.06207252
3420,102910895.06207252
3738,52394447.63099562
2,5, 1, 5, 0,22, 0.00,60.00,Thursday
135,98267997.61519502
3420,98267997.61519504
3738,67860757.15699184
2,5, 1, 5, 0,23, 0.00,60.00,Thursday
135,77772390.65670998
3420,77772390.65670998
3738,6791184.0
2,5, 1, 5, 0,24, 0.00,60.00,Thursday
135,72442274.24247962
3420,72442274.24247962
3738,6791184.0
2,6, 1, 6, 0, 1, 0.00,60.00,Friday
135,57996196.7332391
3420,57996196.7332391
3738,6791184.0
2,6, 1, 6, 0, 2, 0.00,60.00,Friday
135,57609860.1137362
3420,57609860.1137362
3738,6791184.0
2,6, 1, 6, 0, 3, 0.00,60.00,Friday
135,57609860.1137362
3420,57609860.1137362
3738,6791184.0
2,6, 1, 6, 0, 4, 0.00,60.00,Friday
135,57609860.1137362
3420,57609860.1137362
3738,6791184.0
2,6, 1, 6, 0, 5, 0.00,60.00,Friday
135,57609860.1137362
3420,57609860.1137362
3738,6791184.0
2,6, 1, 6, 0, 6, 0.00,60.00,Friday
135,57609860.1137362
3420,57609860.1137362
3738,6791184.0
2,6, 1, 6, 0, 7, 0.00,60.00,Friday
135,106430494.32049786
3420,106430494.32049786
3738,6791184.0
2,6, 1, 6, 0, 8, 0.00,60.00,Friday
135,194361103.21471125
3420,194361103.2147112
3738,148241434.83583197
2,6, 1, 6, 0, 9, 0.00,60.00,Friday
135,315078199.766035
3420,315078199.76603496
3738,103995496.06172866
2,6, 1, 6, 0,10, 0.00,60.00,Friday
135,268942184.9447894
3420,268942184.94478935
3738,97739872.14679307
2,6, 1, 6, 0,11, 0.00,60.00,Friday
135,259865279.5089482
3420,259865279.50894815
3738,88220951.59295483
2,6, 1, 6, 0,12, 0.00,60.00,Friday
135,275873044.898924
3420,275873044.89892393
3738,66968871.74162407
2,6, 1, 6, 0,13, 0.00,60.00,Friday
135,285230817.39588
3420,285230817.3958799
3738,36489974.204774454
2,6, 1, 6, 0,14, 0.00,60.00,Friday
135,297120493.9668841
3420,297120493.9668841
3738,27413355.656198468
2,6, 1, 6, 0,15, 0.00,60.00,Friday
135,286013002.4958494
3420,286013002.4958494
3738,19053648.613436237
2,6, 1, 6, 0,16, 0.00,60.00,Friday
135,287352900.3654065
3420,287352900.3654065
3738,15648142.700096149
2,6, 1, 6, 0,17, 0.00,60.00,Friday
135,297932079.00517344
3420,297932079.0051734
3738,32240734.00959626
2,6, 1, 6, 0,18, 0.00,60.00,Friday
135,248472776.39786345
3420,248472776.39786345
3738,77402142.59970303
2,6, 1, 6, 0,19, 0.00,60.00,Friday
135,131714726.95351982
3420,131714726.9535198
3738,121688064.25753851
2,6, 1, 6, 0,20, 0.00,60.00,Friday
135,115679311.77922662
3420,115679311.77922659
3738,124707988.59739102
2,6, 1, 6, 0,21, 0.00,60.00,Friday
135,108439989.86659819
3420,108439989.86659819
3738,143013431.55222285
2,6, 1, 6, 0,22, 0.00,60.00,Friday
135,106228449.21032143
3420,106228449.21032146
3738,142213092.44714895
2,6, 1, 6, 0,23, 0.00,60.00,Friday
135,77772390.65670998
3420,77772390.65670998
3738,6791184.0
2,6, 1, 6, 0,24, 0.00,60.00,Friday
135,72442274.24247962
3420,72442274.24247962
3738,6791184.0
2,7, 1, 7, 0, 1, 0.00,60.00,Saturday
135,46745513.81922844
3420,46745513.81922843
3738,6791184.0
2,7, 1, 7, 0, 2, 0.00,60.00,Saturday
135,46359235.70955593
3420,46359235.709555924
3738,6791184.0
2,7, 1, 7, 0, 3, 0.00,60.00,Saturday
135,46359235.70955593
3420,46359235.709555924
3738,6791184.0
2,7, 1, 7, 0, 4, 0.00,60.00,Saturday
135,46359235.70955593
3420,46359235.709555924
3738,6791184.0
2,7, 1, 7, 0, 5, 0.00,60.00,Saturday
135,46359235.70955593
3420,46359235.709555924
3738,6791184.0
2,7, 1, 7, 0, 6, 0.00,60.00,Saturday
135,46359235.70955593
3420,46359235.709555924
3738,6791184.0
2,7, 1, 7, 0, 7, 0.00,60.00,Saturday
135,127857080.41161963
3420,127857080.41161965
3738,6791184.0
2,7, 1, 7, 0, 8, 0.00,60.00,Saturday
135,165540010.32238254
3420,165540010.3223825
3738,188944982.64703777
2,7, 1, 7, 0, 9, 0.00,60.00,Saturday
135,147191031.21190137
3420,147191031.21190137
3738,175331990.61986673
2,7, 1, 7, 0,10, 0.00,60.00,Saturday
135,144673594.11586565
3420,144673594.11586565
3738,165467555.4080112
2,7, 1, 7, 0,11, 0.00,60.00,Saturday
135,133538969.70918049
3420,133538969.70918047
3738,138231570.30098748
2,7, 1, 7, 0,12, 0.00,60.00,Saturday
135,138764363.96261868
3420,138764363.96261868
3738,106274485.72019687
2,7, 1, 7, 0,13, 0.00,60.00,Saturday
135,98316251.09328943
3420,98316251.09328943
3738,88224204.03443877
2,7, 1, 7, 0,14, 0.00,60.00,Saturday
135,88254079.98134965
3420,88254079.98134965
3738,88525387.60872498
2,7, 1, 7, 0,15, 0.00,60.00,Saturday
135,82397912.3043599
3420,82397912.30435991
3738,84553468.41040394
2,7, 1, 7, 0,16, 0.00,60.00,Saturday
135,80229732.54818648
3420,80229732.5481865
3738,94199112.59104806
2,7, 1, 7, 0,17, 0.00,60.00,Saturday
135,87335675.42234246
3420,87335675.42234248
3738,103854825.15748964
2,7, 1, 7, 0,18, 0.00,60.00,Saturday
135,83077160.33306564
3420,83077160.33306564
3738,118090805.10698809
2,7, 1, 7, 0,19, 0.00,60.00,Saturday
135,66276703.53612528
3420,66276703.53612528
3738,6791184.0
2,7, 1, 7, 0,20, 0.00,60.00,Saturday
135,49290893.81922844
3420,49290893.81922844
3738,6791184.0
2,7, 1, 7, 0,21, 0.00,60.00,Saturday
135,48904615.70955593
3420,48904615.70955593
3738,6791184.0
2,7, 1, 7, 0,22, 0.00,60.00,Saturday
135,48904615.70955593
3420,48904615.70955593
3738,6791184.0
2,7, 1, 7, 0,23, 0.00,60.00,Saturday
135,48904615.70955593
3420,48904615.70955593
3738,6791184.0
2,7, 1, 7, 0,24, 0.00,60.00,Saturday
135,48904615.70955593
3420,48904615.70955593
3738,6791184.0
2,8, 1, 8, 0, 1, 0.00,60.00,Sunday
135,46359235.70955593
3420,46359235.709555924
3738,6791184.0
2,8, 1, 8, 0, 2, 0.00,60.00,Sunday
135,46359235.70955593
3420,46359235.709555924
3738,6791184.0
2,8, 1, 8, 0, 3, 0.00,60.00,Sunday
135,46359235.70955593
3420,46359235.709555924
3738,6791184.0
2,8, 1, 8, 0, 4, 0.00,60.00,Sunday
135,46359235.70955593
3420,46359235.709555924
3738,6791184.0
2,8, 1, 8, 0, 5, 0.00,60.00,Sunday
135,46359235.70955593
3420,46359235.709555924
3738,6791184.0
2,8, 1, 8, 0, 6, 0.00,60.00,Sunday
135,46359235.70955593
3420,46359235.709555924
3738,6791184.0
2,8, 1, 8, 0, 7, 0.00,60.00,Sunday
135,66032185.73006148
3420,66032185.73006148
3738,6791184.0
2,8, 1, 8, 0, 8, 0.00,60.00,Sunday
135,53323882.89753244
3420,53323882.89753244
3738,6791184.0
2,8, 1, 8, 0, 9, 0.00,60.00,Sunday
135,46344297.59275321
3420,46344297.59275321
3738,6791184.0
2,8, 1, 8, 0,10, 0.00,60.00,Sunday
135,46288812.51597283
3420,46288812.51597283
3738,6791184.0
2,8, 1, 8, 0,11, 0.00,60.00,Sunday
135,46288812.51597283
3420,46288812.51597283
3738,6791184.0
2,8, 1, 8, 0,12, 0.00,60.00,Sunday
135,47256896.73131186
3420,47256896.73131185
3738,6791184.0
2,8, 1, 8, 0,13, 0.00,60.00,Sunday
135,48207662.90921189
3420,48207662.90921188
3738,6791184.0
2,8, 1, 8, 0,14, 0.00,60.00,Sunday
135,54286948.05155416
3420,54286948.05155416
3738,6791184.0
2,8, 1, 8, 0,15, 0.00,60.00,Sunday
135,52931877.331706576
3420,52931877.331706576
3738,6791184.0
2,8, 1, 8, 0,16, 0.00,60.00,Sunday
135,50020053.46493143
3420,50020053.46493143
3738,6791184.0
2,8, 1, 8, 0,17, 0.00,60.00,Sunday
135,47008381.19619044
3420,47008381.19619044
3738,6791184.0
2,8, 1, 8, 0,18, 0.00,60.00,Sunday
135,66276671.30593526
3420,66276671.30593526
3738,6791184.0
2,8, 1, 8, 0,19, 0.00,60.00,Sunday
135,57105773.81922845
3420,57105773.81922844
3738,6791184.0
2,8, 1, 8, 0,20, 0.00,60.00,Sunday
135,48904615.70955593
3420,48904615.70955593
3738,6791184.0
2,8, 1, 8, 0,21, 0.00,60.00,Sunday
135,48904615.70955593
3420,48904615.70955593
3738,6791184.0
2,8, 1, 8, 0,22, 0.00,60.00,Sunday
135,48904615.70955593
3420,48904615.70955593
3738,6791184.0
2,8, 1, 8, 0,23, 0.00,60.00,Sunday
135,48904615.70955593
3420,48904615.70955593
3738,6791184.0
2,8, 1, 8, 0,24, 0.00,60.00,Sunday
135,48904615.70955593
3420,48904615.70955593
3738,6791184.0
2,9, 1, 9, 0, 1, 0.00,60.00,Monday
135,57609860.1137362
3420,57609860.1137362
3738,6791184.0
2,9, 1, 9, 0, 2, 0.00,60.00,Monday
135,57609860.1137362
3420,57609860.1137362
3738,6791184.0
2,9, 1, 9, 0, 3, 0.00,60.00,Monday
135,57609860.1137362
3420,57609860.1137362
3738,6791184.0
2,9, 1, 9, 0, 4, 0.00,60.00,Monday
135,57609860.1137362
3420,57609860.1137362
3738,6791184.0
2,9, 1, 9, 0, 5, 0.00,60.00,Monday
135,57609860.1137362
3420,57609860.1137362
3738,6791184.0
2,9, 1, 9, 0, 6, 0.00,60.00,Monday
135,85521555.61774923
3420,85521555.61774921
3738,6791184.0
2,9, 1, 9, 0, 7, 0.00,60.00,Monday
135,197595606.66961607
3420,197595606.66961607
3738,6791184.0
2,9, 1, 9, 0, 8, 0.00,60.00,Monday
135,278986579.2397605
3420,278986579.2397605
3738,206890363.0322694
2,9, 1, 9, 0, 9, 0.00,60.00,Monday
135,339135655.6209509
3420,339135655.6209509
3738,167915697.78065842
2,9, 1, 9, 0,10, 0.00,60.00,Monday
135,286621820.3896571
3420,286621820.389657
3738,147368976.94384196
2,9, 1, 9, 0,11, 0.00,60.00,Monday
135,268467540.00092644
3420,268467540.0009264
3738,114188214.04044136
2,9, 1, 9, 0,12, 0.00,60.00,Monday
135,272964202.5993084
3420,272964202.5993083
3738,80123602.78398108
2,9, 1, 9, 0,13, 0.00,60.00,Monday
135,277915509.98236376
3420,277915509.9823637
3738,65108954.224400975
2,9, 1, 9, 0,14, 0.00,60.00,Monday
135,283842029.3863967
3420,283842029.3863967
3738,38505500.54604165
2,9, 1, 9, 0,15, 0.00,60.00,Monday
135,274058949.6220566
3420,274058949.62205654
3738,21892347.193348784
2,9, 1, 9, 0,16, 0.00,60.00,Monday
135,279712332.83981603
3420,279712332.83981603
3738,15657264.091174696
2,9, 1, 9, 0,17, 0.00,60.00,Monday
135,293564935.1525585
3420,293564935.1525585
3738,35464497.87104426
2,9, 1, 9, 0,18, 0.00,60.00,Monday
135,244714950.09075186
3420,244714950.09075186
3738,61255392.41771245
2,9, 1, 9, 0,19, 0.00,60.00,Monday
135,140420522.8931374
3420,140420522.8931374
3738,112556144.46119887
2,9, 1, 9, 0,20, 0.00,60.00,Monday
135,129377468.95845258
3420,129377468.95845258
3738,121584710.21612881
2,9, 1, 9, 0,21, 0.00,60.00,Monday
135,124777811.68341106
3420,124777811.68341106
3738,110455296.44595453
2,9, 1, 9, 0,22, 0.00,60.00,Monday
135,127291327.36630543
3420,127291327.36630544
3738,114904465.80385919
2,9, 1, 9, 0,23, 0.00,60.00,Monday
135,77772390.65670998
3420,77772390.65670998
3738,6791184.0
2,9, 1, 9, 0,24, 0.00,60.00,Monday
135,72442274.24247962
3420,72442274.24247962
3738,6791184.0
2,10, 1,10, 0, 1, 0.00,60.00,Tuesday
135,57996196.7332391
3420,57996196.7332391
3738,6791184.0
2,10, 1,10, 0, 2, 0.00,60.00,Tuesday
135,57609860.1137362
3420,57609860.1137362
3738,6791184.0
2,10, 1,10, 0, 3, 0.00,60.00,Tuesday
135,57609860.1137362
3420,57609860.1137362
3738,6791184.0
2,10, 1,10, 0, 4, 0.00,60.00,Tuesday
135,57609860.1137362
3420,57609860.1137362
3738,6791184.0
2,10, 1,10, 0, 5, 0.00,60.00,Tuesday
135,57609860.1137362
3420,57609860.1137362
3738,6791184.0
2,10, 1,10, 0, 6, 0.00,60.00,Tuesday
135,70076220.01046294
3420,70076220.01046295
3738,6791184.0
2,10, 1,10, 0, 7, 0.00,60.00,Tuesday
135,163720716.43524328
3420,163720716.43524328
3738,6791184.0
2,10, 1,10, 0, 8, 0.00,60.00,Tuesday
135,259082497.78779858
3420,259082497.78779852
3738,206526507.2727207
2,10, 1,10, 0, 9, 0.00,60.00,Tuesday
135,332840240.5852169
3420,332840240.5852169
3738,170493870.7998542
2,10, 1,10, 0,10, 0.00,60.00,Tuesday
135,274535934.40342224
3420,274535934.4034222
3738,151302377.31243694
2,10, 1,10, 0,11, 0.00,60.00,Tuesday
135,260908111.80230713
3420,260908111.80230707
3738,136173418.5411859
2,10, 1,10, 0,12, 0.00,60.00,Tuesday
135,266096016.35894996
3420,266096016.35894996
3738,141546970.18826976
2,10, 1,10, 0,13, 0.00,60.00,Tuesday
135,283841940.67455095
3420,283841940.67455095
3738,104015289.56185816
2,10, 1,10, 0,14, 0.00,60.00,Tuesday
135,275202305.08598876
3420,275202305.0859887
3738,91923651.3889788
2,10, 1,10, 0,15, 0.00,60.00,Tuesday
135,262806334.02876335
3420,262806334.0287633
3738,51205396.50287133
2,10, 1,10, 0,16, 0.00,60.00,Tuesday
135,265348573.3995303
3420,265348573.39953023
3738,42843446.832871735
2,10, 1,10, 0,17, 0.00,60.00,Tuesday
135,279549948.2964653
3420,279549948.2964653
3738,60834037.80526583
2,10, 1,10, 0,18, 0.00,60.00,Tuesday
135,244405443.7335929
3420,244405443.7335929
3738,78408833.23720434
2,10, 1,10, 0,19, 0.00,60.00,Tuesday
135,144944475.2250787
3420,144944475.22507873
3738,140486069.05992794
2,10, 1,10, 0,20, 0.00,60.00,Tuesday
135,130559909.03819484
3420,130559909.03819484
3738,139984590.1920874
2,10, 1,10, 0,21, 0.00,60.00,Tuesday
135,125458684.32897241
3420,125458684.32897244
3738,149533539.5595664
2,10, 1,10, 0,22, 0.00,60.00,Tuesday
135,130054140.1744653
3420,130054140.1744653
3738,160876327.4503979
2,10, 1,10, 0,23, 0.00,60.00,Tuesday
135,77772390.65670998
3420,77772390.65670998
3738,6791184.0
2,10, 1,10, 0,24, 0.00,60.00,Tuesday
135,72442274.24247962
3420,72442274.24247962
3738,6791184.0
2,11, 1,11, 0, 1, 0.00,60.00,Wednesday
135,57996196.7332391
3420,57996196.7332391
3738,6791184.0
2,11, 1,11, 0, 2, 0.00,60.00,Wednesday
135,57609860.1137362
3420,57609860.1137362
3738,6791184.0
2,11, 1,11, 0, 3, 0.00,60.00,Wednesday
135,57609860.1137362
3420,57609860.1137362
3738,6791184.0
2,11, 1,11, 0, 4, 0.00,60.00,Wednesday
135,57609860.1137362
3420,57609860.1137362
3738,6791184.0
2,11, 1,11, 0, 5, 0.00,60.00,Wednesday
135,57609860.1137362
3420,57609860.1137362
3738,6791184.0
2,11, 1,11, 0, 6, 0.00,60.00,Wednesday
135,65007634.25191766
3420,65007634.25191766
3738,6791184.0
2,11, 1,11, 0, 7, 0.00,60.00,Wednesday
135,154214784.67299777
3420,154214784.67299774
3738,6791184.0
2,11, 1,11, 0, 8, 0.00,60.00,Wednesday
135,238372900.96373272
3420,238372900.9637327
3738,136583037.28463504
2,11, 1,11, 0, 9, 0.00,60.00,Wednesday
135,320863127.5308165
3420,320863127.53081656
3738,90800946.50184125
2,11, 1,11, 0,10, 0.00,60.00,Wednesday
135,271535682.9601316
3420,271535682.9601316
3738,82208169.76872453
2,11, 1,11, 0,11, 0.00,60.00,Wednesday
135,260741964.30882975
3420,260741964.30882972
3738,60166715.91160503
2,11, 1,11, 0,12, 0.00,60.00,Wednesday
135,270334209.4498311
3420,270334209.44983107
3738,64799291.75673056
2,11, 1,11, 0,13, 0.00,60.00,Wednesday
135,288095600.3095956
3420,288095600.3095956
3738,71939432.18095085
2,11, 1,11, 0,14, 0.00,60.00,Wednesday
135,279007770.1109014
3420,279007770.1109014
3738,62284085.13535089
2,11, 1,11, 0,15, 0.00,60.00,Wednesday
135,263859321.263187
3420,263859321.263187
3738,51100744.434883334
2,11, 1,11, 0,16, 0.00,60.00,Wednesday
135,262718756.90143618
3420,262718756.90143618
3738,57063357.19870723
2,11, 1,11, 0,17, 0.00,60.00,Wednesday
135,279665059.3833342
3420,279665059.38333416
3738,81530171.06231153
2,11, 1,11, 0,18, 0.00,60.00,Wednesday
135,243481679.35403746
3420,243481679.35403746
3738,79487533.86676195
2,11, 1,11, 0,19, 0.00,60.00,Wednesday
135,144059954.93763095
3420,144059954.93763095
3738,117656996.58440042
2,11, 1,11, 0,20, 0.00,60.00,Wednesday
135,125363907.00940484
3420,125363907.00940485
3738,122648258.38858321
2,11, 1,11, 0,21, 0.00,60.00,Wednesday
135,120493031.43012676
3420,120493031.43012676
3738,121979532.11721243
2,11, 1,11, 0,22, 0.00,60.00,Wednesday
135,120905370.33531573
3420,120905370.33531575
3738,131402678.98836048
2,11, 1,11, 0,23, 0.00,60.00,Wednesday
135,77772390.65670998
3420,77772390.65670998
3738,6791184.0
2,11, 1,11, 0,24, 0.00,60.00,Wednesday
135,72442274.24247962
3420,72442274.24247962
3738,6791184.0
2,12, 1,12, 0, 1, 0.00,60.00,Thursday
135,57996196.7332391
3420,57996196.7332391
3738,6791184.0
2,12, 1,12, 0, 2, 0.00,60.00,Thursday
135,57609860.1137362
3420,57609860.1137362
3738,6791184.0
2,12, 1,12, 0, 3, 0.00,60.00,Thursday
135,57609860.1137362
3420,57609860.1137362
3738,6791184.0
2,12, 1,12, 0, 4, 0.00,60.00,Thursday
135,57609860.1137362
3420,57609860.1137362
3738,6791184.0
2,12, 1,12, 0, 5, 0.00,60.00,Thursday
135,57609860.1137362
3420,57609860.1137362
3738,6791184.0
2,12, 1,12, 0, 6, 0.00,60.00,Thursday
135,57609860.1137362
3420,57609860.1137362
3738,6791184.0
2,12, 1,12, 0, 7, 0.00,60.00,Thursday
135,132838827.97283728
3420,132838827.9728373
3738,6791184.0
2,12, 1,12, 0, 8, 0.00,60.00,Thursday
135,223438817.71274775
3420,223438817.71274778
3738,143833806.59227914
2,12, 1,12, 0, 9, 0.00,60.00,Thursday
135,315004931.26362944
3420,315004931.26362944
3738,93455939.04387239
2,12, 1,12, 0,10, 0.00,60.00,Thursday
135,268502740.81022865
3420,268502740.81022865
3738,81789643.93531685
2,12, 1,12, 0,11, 0.00,60.00,Thursday
135,259160808.5361737
3420,259160808.53617367
3738,63405603.055134684
2,12, 1,12, 0,12, 0.00,60.00,Thursday
135,270780081.11615264
3420,270780081.1161526
3738,58709120.76998425
2,12, 1,12, 0,13, 0.00,60.00,Thursday
135,291005830.63029325
3420,291005830.6302932
3738,49081793.00926743
2,12, 1,12, 0,14, 0.00,60.00,Thursday
135,281668316.035892
3420,281668316.035892
3738,46899944.134052195
2,12, 1,12, 0,15, 0.00,60.00,Thursday
135,266844062.10991752
3420,266844062.10991752
3738,27427270.2751758
2,12, 1,12, 0,16, 0.00,60.00,Thursday
135,266719899.41125697
3420,266719899.41125697
3738,34810941.759426914
2,12, 1,12, 0,17, 0.00,60.00,Thursday
135,285280058.00395924
3420,285280058.0039591
3738,41356409.45413581
2,12, 1,12, 0,18, 0.00,60.00,Thursday
135,247969032.5667992
3420,247969032.56679922
3738,51395496.15967643
2,12, 1,12, 0,19, 0.00,60.00,Thursday
135,136408618.12110987
3420,136408618.12110984
3738,77548545.94056585
2,12, 1,12, 0,20, 0.00,60.00,Thursday
135,117214131.58594641
3420,117214131.58594641
3738,74437855.50568637
2,12, 1,12, 0,21, 0.00,60.00,Thursday
135,109748706.00591888
3420,109748706.00591888
3738,78010127.5684426
2,12, 1,12, 0,22, 0.00,60.00,Thursday
135,108047770.50110805
3420,108047770.50110807
3738,81717997.97917238
2,12, 1,12, 0,23, 0.00,60.00,Thursday
135,77772390.65670998
3420,77772390.65670998
3738,6791184.0
2,12, 1,12, 0,24, 0.00,60.00,Thursday
135,72442274.24247962
3420,72442274.24247962
3738,6791184.0
2,13, 1,13, 0, 1, 0.00,60.00,Friday
135,57996196.7332391
3420,57996196.7332391
3738,6791184.0