Program Version,EnergyPlus, Version 9.6.0-f420c06a69, YMD=2022.07.16 14:35
1,5,Environment Title[],Latitude[deg],Longitude[deg],Time Zone[],Elevation[m]
2,8,Day of Simulation[],Month[],Day of Month[],DST Indicator[1=yes 0=no],Hour[],StartMinute[],EndMinute[],DayType
3,5,Cumulative Day of Simulation[],Month[],Day of Month[],DST Indicator[1=yes 0=no],DayType  ! When Daily Meters Requested
4,2,Cumulative Days of Simulation[],Month[]  ! When Monthly Meters Requested
5,1,Cumulative Days of Simulation[] ! When Run Period Meters Requested
6,1,Calendar Year of Simulation[] ! When Annual Meters Requested
135,1,Electricity:Facility [J] !Hourly
3420,1,ElectricityNet:Facility [J] !Hourly
3738,1,NaturalGas:Facility [J] !Hourly
End of Data Dictionary
1,RUNPERIOD 1,  35.04,-106.62,  -7.00,1619.00
2,1, 1, 1, 0, 1, 0.00,60.00,Holiday
135,46359074.93593144
3420,46359074.93593143
3738,6791184.0
2,1, 1, 1, 0, 2, 0.00,60.00,Holiday
135,46359235.70955593
3420,46359235.709555924
3738,6791184.0
2,1, 1, 1, 0, 3, 0.00,60.00,Holiday
135,46359235.70955593
3420,46359235.709555924
3738,6791184.0
2,1, 1, 1, 0, 4, 0.00,60.00,Holiday
135,46359235.70955593
3420,46359235.709555924
3738,6791184.0
2,1, 1, 1, 0, 5, 0.00,60.00,Holiday
135,46359235.70955593
3420,46359235.709555924
3738,6791184.0
2,1, 1, 1, 0, 6, 0.00,60.00,Holiday
135,46359235.70955593
3420,46359235.709555924
3738,6791184.0
2,1, 1, 1, 0, 7, 0.00,60.00,Holiday
135,66032185.73006148
3420,66032185.73006148
3738,6791184.0
2,1, 1, 1, 0, 8, 0.00,60.00,Holiday
135,50074623.774579875
3420,50074623.774579875
3738,6791184.0
2,1, 1, 1, 0, 9, 0.00,60.00,Holiday
135,46351708.9331394
3420,46351708.9331394
3738,6791184.0
2,1, 1, 1, 0,10, 0.00,60.00,Holiday
135,46288813.17904917
3420,46288813.179049164
3738,6791184.0
2,1, 1, 1, 0,11, 0.00,60.00,Holiday
135,50556028.58634514
3420,50556028.58634514
3738,6791184.0
2,1, 1, 1, 0,12, 0.00,60.00,Holiday
135,53620061.07971074
3420,53620061.07971075
3738,6791184.0
2,1, 1, 1, 0,13, 0.00,60.00,Holiday
135,54251377.4482968
3420,54251377.44829681
3738,6791184.0
2,1, 1, 1, 0,14, 0.00,60.00,Holiday
135,58744815.664830714
3420,58744815.66483073
3738,6791184.0
2,1, 1, 1, 0,15, 0.00,60.00,Holiday
135,64652365.25448359
3420,64652365.25448359
3738,6791184.0
2,1, 1, 1, 0,16, 0.00,60.00,Holiday
135,62671968.53224909
3420,62671968.53224909
3738,6791184.0
2,1, 1, 1, 0,17, 0.00,60.00,Holiday
135,54610940.42094375
3420,54610940.42094375
3738,6791184.0
2,1, 1, 1, 0,18, 0.00,60.00,Holiday
135,66905826.86107348
3420,66905826.86107348
3738,6791184.0
2,1, 1, 1, 0,19, 0.00,60.00,Holiday
135,57105773.81922845
3420,57105773.81922844
3738,6791184.0
2,1, 1, 1, 0,20, 0.00,60.00,Holiday
135,48904615.70955593
3420,48904615.70955593
3738,6791184.0
2,1, 1, 1, 0,21, 0.00,60.00,Holiday
135,48904615.70955593
3420,48904615.70955593
3738,6791184.0
2,1, 1, 1, 0,22, 0.00,60.00,Holiday
135,48904615.70955593
3420,48904615.70955593
3738,6791184.0
2,1, 1, 1, 0,23, 0.00,60.00,Holiday
135,48904615.70955593
3420,48904615.70955593
3738,6791184.0
2,1, 1, 1, 0,24, 0.00,60.00,Holiday
135,48904615.70955593
3420,48904615.70955593
3738,6791184.0
2,2, 1, 2, 0, 1, 0.00,60.00,Monday
135,57609860.1137362
3420,57609860.1137362
3738,6791184.0
2,2, 1, 2, 0, 2, 0.00,60.00,Monday
135,57609860.1137362
3420,57609860.1137362
3738,6791184.0
2,2, 1, 2, 0, 3, 0.00,60.00,Monday
135,57609860.1137362
3420,57609860.1137362
3738,6791184.0
2,2, 1, 2, 0, 4, 0.00,60.00,Monday
135,57609860.1137362
3420,57609860.1137362
3738,6791184.0
2,2, 1, 2, 0, 5, 0.00,60.00,Monday
135,57609860.1137362
3420,57609860.1137362
3738,6791184.0
2,2, 1, 2, 0, 6, 0.00,60.00,Monday
135,57609860.1137362
3420,57609860.1137362
3738,6791184.0
2,2, 1, 2, 0, 7, 0.00,60.00,Monday
135,134878218.9732619
3420,134878218.97326186
3738,6791184.0
2,2, 1, 2, 0, 8, 0.00,60.00,Monday
135,224447349.34681612
3420,224447349.34681612
3738,144051788.3317502
2,2, 1, 2, 0, 9, 0.00,60.00,Monday
135,310113173.5226268
3420,310113173.52262676
3738,88876839.65152809
2,2, 1, 2, 0,10, 0.00,60.00,Monday
135,271365063.6523837
3420,271365063.6523836
3738,60265923.85270449
2,2, 1, 2, 0,11, 0.00,60.00,Monday
135,268042805.41555253
3420,268042805.41555253
3738,22324186.92765486
2,2, 1, 2, 0,12, 0.00,60.00,Monday
135,288256589.4717232
3420,288256589.4717232
3738,20876794.54329522
2,2, 1, 2, 0,13, 0.00,60.00,Monday
135,289626908.83261126
3420,289626908.83261126
3738,31334423.78333511
2,2, 1, 2, 0,14, 0.00,60.00,Monday
135,304560312.7598077
3420,304560312.75980777
3738,26165958.14784857
2,2, 1, 2, 0,15, 0.00,60.00,Monday
135,297207055.59561163
3420,297207055.5956117
3738,16649506.089210246
2,2, 1, 2, 0,16, 0.00,60.00,Monday
135,301765850.1485542
3420,301765850.1485542
3738,19089949.697671723
2,2, 1, 2, 0,17, 0.00,60.00,Monday
135,300883689.7626623
3420,300883689.7626623
3738,20696611.81849547
2,2, 1, 2, 0,18, 0.00,60.00,Monday
135,237763786.45298475
3420,237763786.45298478
3738,22828722.127478585
2,2, 1, 2, 0,19, 0.00,60.00,Monday
135,131185250.1779861
3420,131185250.1779861
3738,54000351.72755138
2,2, 1, 2, 0,20, 0.00,60.00,Monday
135,115788227.31176195
3420,115788227.31176195
3738,68630236.21559957
2,2, 1, 2, 0,21, 0.00,60.00,Monday
135,107180701.07736793
3420,107180701.07736793
3738,80740475.22169581
2,2, 1, 2, 0,22, 0.00,60.00,Monday
135,104935694.04120313
3420,104935694.04120316
3738,82360406.46165311
2,2, 1, 2, 0,23, 0.00,60.00,Monday
135,77772390.65670998
3420,77772390.65670998
3738,6791184.0
2,2, 1, 2, 0,24, 0.00,60.00,Monday
135,72442274.24247962
3420,72442274.24247962
3738,6791184.0
2,3, 1, 3, 0, 1, 0.00,60.00,Tuesday
135,57996196.7332391
3420,57996196.7332391
3738,6791184.0
2,3, 1, 3, 0, 2, 0.00,60.00,Tuesday
135,57609860.1137362
3420,57609860.1137362
3738,6791184.0
2,3, 1, 3, 0, 3, 0.00,60.00,Tuesday
135,57609860.1137362
3420,57609860.1137362
3738,6791184.0
2,3, 1, 3, 0, 4, 0.00,60.00,Tuesday
135,57609860.1137362
3420,57609860.1137362
3738,6791184.0
2,3, 1, 3, 0, 5, 0.00,60.00,Tuesday
135,57609860.1137362
3420,57609860.1137362
3738,6791184.0
2,3, 1, 3, 0, 6, 0.00,60.00,Tuesday
135,57609860.1137362
3420,57609860.1137362
3738,6791184.0
2,3, 1, 3, 0, 7, 0.00,60.00,Tuesday
135,110246891.9321736
3420,110246891.9321736
3738,6791184.0
2,3, 1, 3, 0, 8, 0.00,60.00,Tuesday
135,189787777.19002396
3420,189787777.19002393
3738,127893569.43827754
2,3, 1, 3, 0, 9, 0.00,60.00,Tuesday
135,311735474.6462774
3420,311735474.64627737
3738,74048611.90492582
2,3, 1, 3, 0,10, 0.00,60.00,Tuesday
135,277285498.1859546
3420,277285498.1859546
3738,33473696.454957783
2,3, 1, 3, 0,11, 0.00,60.00,Tuesday
135,276669119.4453627
3420,276669119.44536257
3738,11005409.7709702
2,3, 1, 3, 0,12, 0.00,60.00,Tuesday
135,294510040.65947235
3420,294510040.65947235
3738,23274910.85150368
2,3, 1, 3, 0,13, 0.00,60.00,Tuesday
135,296008760.87337774
3420,296008760.87337774
3738,31313196.53816751
2,3, 1, 3, 0,14, 0.00,60.00,Tuesday
135,312284133.5152771
3420,312284133.515277
3738,26179341.579351917
2,3, 1, 3, 0,15, 0.00,60.00,Tuesday
135,299189175.22582275
3420,299189175.2258227
3738,20134709.832633905
2,3, 1, 3, 0,16, 0.00,60.00,Tuesday
135,301538626.978468
3420,301538626.97846794
3738,15642458.538278697
2,3, 1, 3, 0,17, 0.00,60.00,Tuesday
135,304730537.75266874
3420,304730537.75266874
3738,20958302.01508384
2,3, 1, 3, 0,18, 0.00,60.00,Tuesday
135,242294047.40376464
3420,242294047.4037646
3738,21562358.46836356
2,3, 1, 3, 0,19, 0.00,60.00,Tuesday
135,130907875.22488436
3420,130907875.22488436
3738,47833167.25188838
2,3, 1, 3, 0,20, 0.00,60.00,Tuesday
135,113569604.38930234
3420,113569604.38930234
3738,73369149.88135625
2,3, 1, 3, 0,21, 0.00,60.00,Tuesday
135,103180023.95993808
3420,103180023.95993808
3738,86734678.9977592
2,3, 1, 3, 0,22, 0.00,60.00,Tuesday
135,101292540.65460105
3420,101292540.65460107
3738,119365075.96384424
2,3, 1, 3, 0,23, 0.00,60.00,Tuesday
135,77772390.65670998
3420,77772390.65670998
3738,6791184.0
2,3, 1, 3, 0,24, 0.00,60.00,Tuesday
135,72442274.24247962
3420,72442274.24247962
3738,6791184.0
2,4, 1, 4, 0, 1, 0.00,60.00,Wednesday
135,57996196.7332391
3420,57996196.7332391
3738,6791184.0
2,4, 1, 4, 0, 2, 0.00,60.00,Wednesday
135,57609860.1137362
3420,57609860.1137362
3738,6791184.0
2,4, 1, 4, 0, 3, 0.00,60.00,Wednesday
135,57609860.1137362
3420,57609860.1137362
3738,6791184.0
2,4, 1, 4, 0, 4, 0.00,60.00,Wednesday
135,57609860.1137362
3420,57609860.1137362
3738,6791184.0
2,4, 1, 4, 0, 5, 0.00,60.00,Wednesday
135,57609860.1137362
3420,57609860.1137362
3738,6791184.0
2,4, 1, 4, 0, 6, 0.00,60.00,Wednesday
135,57609860.1137362
3420,57609860.1137362
3738,6791184.0
2,4, 1, 4, 0, 7, 0.00,60.00,Wednesday
135,112651682.14292547
3420,112651682.14292547
3738,6791184.0
2,4, 1, 4, 0, 8, 0.00,60.00,Wednesday
135,198784955.2493367
3420,198784955.24933666
3738,165913948.72460368
2,4, 1, 4, 0, 9, 0.00,60.00,Wednesday
135,311299784.8710371
3420,311299784.8710372
3738,95549480.31051162
2,4, 1, 4, 0,10, 0.00,60.00,Wednesday
135,270392081.91015625
3420,270392081.91015625
3738,64586335.8936679
2,4, 1, 4, 0,11, 0.00,60.00,Wednesday
135,264467109.54108983
3420,264467109.54108977
3738,43485559.074347965
2,4, 1, 4, 0,12, 0.00,60.00,Wednesday
135,278476846.76414806
3420,278476846.764148
3738,27019067.68635009
2,4, 1, 4, 0,13, 0.00,60.00,Wednesday
135,284518938.5455697
3420,284518938.54556966
3738,31352297.971607465
2,4, 1, 4, 0,14, 0.00,60.00,Wednesday
135,289766556.4705069
3420,289766556.4705069
3738,26192253.04059361
2,4, 1, 4, 0,15, 0.00,60.00,Wednesday
135,275020006.2950244
3420,275020006.29502434
3738,20162091.104415838
2,4, 1, 4, 0,16, 0.00,60.00,Wednesday
135,274516667.11700636
3420,274516667.11700636
3738,15652325.964574212
2,4, 1, 4, 0,17, 0.00,60.00,Wednesday
135,294218009.12875366
3420,294218009.12875366
3738,25318773.295277826
2,4, 1, 4, 0,18, 0.00,60.00,Wednesday
135,251615672.84138995
3420,251615672.84138995
3738,26201301.296459794
2,4, 1, 4, 0,19, 0.00,60.00,Wednesday
135,131028331.3590005
3420,131028331.3590005
3738,51337805.18748933
2,4, 1, 4, 0,20, 0.00,60.00,Wednesday
135,113569604.38930234
3420,113569604.38930234
3738,70932710.05211103
2,4, 1, 4, 0,21, 0.00,60.00,Wednesday
135,103446253.13553382
3420,103446253.13553384
3738,88631719.51758766
2,4, 1, 4, 0,22, 0.00,60.00,Wednesday
135,101554231.79049848
3420,101554231.79049848
3738,103467069.7087128
2,4, 1, 4, 0,23, 0.00,60.00,Wednesday
135,77772390.65670998
3420,77772390.65670998
3738,6791184.0
2,4, 1, 4, 0,24, 0.00,60.00,Wednesday
135,72442274.24247962
3420,72442274.24247962
3738,6791184.0
2,5, 1, 5, 0, 1, 0.00,60.00,Thursday
135,57996196.7332391
3420,57996196.7332391
3738,6791184.0
2,5, 1, 5, 0, 2, 0.00,60.00,Thursday
135,57609860.1137362
3420,57609860.1137362
3738,6791184.0
2,5, 1, 5, 0, 3, 0.00,60.00,Thursday
135,57609860.1137362
3420,57609860.1137362
3738,6791184.0
2,5, 1, 5, 0, 4, 0.00,60.00,Thursday
135,57609860.1137362
3420,57609860.1137362
3738,6791184.0
2,5, 1, 5, 0, 5, 0.00,60.00,Thursday
135,57609860.1137362
3420,57609860.1137362
3738,6791184.0
2,5, 1, 5, 0, 6, 0.00,60.00,Thursday
135,57609860.1137362
3420,57609860.1137362
3738,6791184.0
2,5, 1, 5, 0, 7, 0.00,60.00,Thursday
135,107701251.82257648
3420,107701251.82257648
3738,6791184.0
2,5, 1, 5, 0, 8, 0.00,60.00,Thursday
135,188147239.55110398
3420,188147239.551104
3738,137920895.4777256
2,5, 1, 5, 0, 9, 0.00,60.00,Thursday
135,310762961.0167447
3420,310762961.0167447
3738,72477622.88952443
2,5, 1, 5, 0,10, 0.00,60.00,Thursday
135,276927880.35398036
3420,276927880.3539803
3738,24826505.531779464
2,5, 1, 5, 0,11, 0.00,60.00,Thursday
135,276236015.35553586
3420,276236015.35553586
3738,11332647.392711852
2,5, 1, 5, 0,12, 0.00,60.00,Thursday
135,289158489.51161677
3420,289158489.51161677
3738,20890860.18818345
2,5, 1, 5, 0,13, 0.00,60.00,Thursday
135,290966562.88179046
3420,290966562.88179046
3738,31320797.327841293
2,5, 1, 5, 0,14, 0.00,60.00,Thursday
135,312262821.8957182
3420,312262821.8957183
3738,26188929.52082146
2,5, 1, 5, 0,15, 0.00,60.00,Thursday
135,305372740.83679897
3420,305372740.8367989
3738,20203509.702513896
2,5, 1, 5, 0,16, 0.00,60.00,Thursday
135,309041048.00687
3420,309041048.0068699
3738,15641231.921500882
2,5, 1, 5, 0,17, 0.00,60.00,Thursday
135,312511442.69899845
3420,312511442.6989984
3738,25322111.88965314
2,5, 1, 5, 0,18, 0.00,60.00,Thursday
135,244393632.86295852
3420,244393632.8629585
3738,11107160.609801734
2,5, 1, 5, 0,19, 0.00,60.00,Thursday
135,132420755.13131694
3420,132420755.13131694
3738,16804422.59444064
2,5, 1, 5, 0,20, 0.00,60.00,Thursday
135,113569604.38930234
3420,113569604.38930234
3738,35331075.800865725
2,5, 1, 5, 0,21, 0.00,60.00,Thursday
135,102910895.06207252
3420,102910895.06207252
3738,47523428.04358879
2,5, 1, 5, 0,22, 0.00,60.00,Thursday
135,98470808.17848878
3420,98470808.17848879
3738,61218020.65757948
2,5, 1, 5, 0,23, 0.00,60.00,Thursday
135,77772390.65670998
3420,77772390.65670998
3738,6791184.0
2,5, 1, 5, 0,24, 0.00,60.00,Thursday
135,72442274.24247962
3420,72442274.24247962
3738,6791184.0
2,6, 1, 6, 0, 1, 0.00,60.00,Friday
135,57996196.7332391
3420,57996196.7332391
3738,6791184.0
2,6, 1, 6, 0, 2, 0.00,60.00,Friday
135,57609860.1137362
3420,57609860.1137362
3738,6791184.0
2,6, 1, 6, 0, 3, 0.00,60.00,Friday
135,57609860.1137362
3420,57609860.1137362
3738,6791184.0
2,6, 1, 6, 0, 4, 0.00,60.00,Friday
135,57609860.1137362
3420,57609860.1137362
3738,6791184.0
2,6, 1, 6, 0, 5, 0.00,60.00,Friday
135,57609860.1137362
3420,57609860.1137362
3738,6791184.0
2,6, 1, 6, 0, 6, 0.00,60.00,Friday
135,57609860.1137362
3420,57609860.1137362
3738,6791184.0
2,6, 1, 6, 0, 7, 0.00,60.00,Friday
135,105151410.7186759
3420,105151410.71867591
3738,6791184.0
2,6, 1, 6, 0, 8, 0.00,60.00,Friday
135,192094672.91719618
3420,192094672.91719618
3738,126046812.23950544
2,6, 1, 6, 0, 9, 0.00,60.00,Friday
135,313643187.3914754
3420,313643187.3914754
3738,87365348.53964688
2,6, 1, 6, 0,10, 0.00,60.00,Friday
135,269734394.1815665
3420,269734394.1815664
3738,79895059.58310889
2,6, 1, 6, 0,11, 0.00,60.00,Friday
135,261906325.37897906
3420,261906325.37897897
3738,69644762.65710193
2,6, 1, 6, 0,12, 0.00,60.00,Friday
135,279209895.2292556
3420,279209895.2292556
3738,47565651.73633912
2,6, 1, 6, 0,13, 0.00,60.00,Friday
135,288736746.79755414
3420,288736746.79755414
3738,27972599.676188126
2,6, 1, 6, 0,14, 0.00,60.00,Friday
135,301305984.8634031
3420,301305984.8634031
3738,27612249.078351382
2,6, 1, 6, 0,15, 0.00,60.00,Friday
135,288023524.9723754
3420,288023524.97237533
3738,18865373.122750305
2,6, 1, 6, 0,16, 0.00,60.00,Friday
135,290700025.31458455
3420,290700025.3145845
3738,15648820.670388801
2,6, 1, 6, 0,17, 0.00,60.00,Friday
135,301394902.8513657
3420,301394902.8513656
3738,25525403.45441523
2,6, 1, 6, 0,18, 0.00,60.00,Friday
135,250634119.6201798
3420,250634119.6201798
3738,53055872.36015038
2,6, 1, 6, 0,19, 0.00,60.00,Friday
135,131468919.02410586
3420,131468919.02410588
3738,79387285.34504057
2,6, 1, 6, 0,20, 0.00,60.00,Friday
135,113697740.3259452
3420,113697740.3259452
3738,82660624.37680127
2,6, 1, 6, 0,21, 0.00,60.00,Friday
135,105040273.54859316
3420,105040273.5485932
3738,99944416.9737964
2,6, 1, 6, 0,22, 0.00,60.00,Friday
135,101947469.12447283
3420,101947469.12447283
3738,98675145.13776237
2,6, 1, 6, 0,23, 0.00,60.00,Friday
135,77772390.65670998
3420,77772390.65670998
3738,6791184.0
2,6, 1, 6, 0,24, 0.00,60.00,Friday
135,72442274.24247962
3420,72442274.24247962
3738,6791184.0
2,7, 1, 7, 0, 1, 0.00,60.00,Saturday
135,46745513.81922844
3420,46745513.81922843
3738,6791184.0
2,7, 1, 7, 0, 2, 0.00,60.00,Saturday
135,46359235.70955593
3420,46359235.709555924
3738,6791184.0
2,7, 1, 7, 0, 3, 0.00,60.00,Saturday
135,46359235.70955593
3420,46359235.709555924
3738,6791184.0
2,7, 1, 7, 0, 4, 0.00,60.00,Saturday
135,46359235.70955593
3420,46359235.709555924
3738,6791184.0
2,7, 1, 7, 0, 5, 0.00,60.00,Saturday
135,46359235.70955593
3420,46359235.709555924
3738,6791184.0
2,7, 1, 7, 0, 6, 0.00,60.00,Saturday
135,46359235.70955593
3420,46359235.709555924
3738,6791184.0
2,7, 1, 7, 0, 7, 0.00,60.00,Saturday
135,113883415.39909273
3420,113883415.39909273
3738,6791184.0
2,7, 1, 7, 0, 8, 0.00,60.00,Saturday
135,144840425.6490059
3420,144840425.64900586
3738,133189911.75887658
2,7, 1, 7, 0, 9, 0.00,60.00,Saturday
135,135597412.3721677
3420,135597412.3721677
3738,116177593.76539236
2,7, 1, 7, 0,10, 0.00,60.00,Saturday
135,136469758.40968096
3420,136469758.40968096
3738,102899979.88150825
2,7, 1, 7, 0,11, 0.00,60.00,Saturday
135,128884071.29391178
3420,128884071.29391178
3738,75299341.48820485
2,7, 1, 7, 0,12, 0.00,60.00,Saturday
135,137814410.8220821
3420,137814410.82208213
3738,34573178.42189992
2,7, 1, 7, 0,13, 0.00,60.00,Saturday
135,97089594.06052592
3420,97089594.06052592
3738,22436788.928854156
2,7, 1, 7, 0,14, 0.00,60.00,Saturday
135,86586052.12331727
3420,86586052.12331729
3738,23224231.934265055
2,7, 1, 7, 0,15, 0.00,60.00,Saturday
135,80777988.06353001
3420,80777988.06353001
3738,20889390.15178031
2,7, 1, 7, 0,16, 0.00,60.00,Saturday
135,76336377.99375394
3420,76336377.99375394
3738,29294580.330758184
2,7, 1, 7, 0,17, 0.00,60.00,Saturday
135,79472844.24572492
3420,79472844.24572492
3738,38361099.12244275
2,7, 1, 7, 0,18, 0.00,60.00,Saturday
135,83077160.33306564
3420,83077160.33306564
3738,52088849.870572895
2,7, 1, 7, 0,19, 0.00,60.00,Saturday
135,66276703.53612528
3420,66276703.53612528
3738,6791184.0
2,7, 1, 7, 0,20, 0.00,60.00,Saturday
135,49290893.81922844
3420,49290893.81922844
3738,6791184.0
2,7, 1, 7, 0,21, 0.00,60.00,Saturday
135,48904615.70955593
3420,48904615.70955593
3738,6791184.0
2,7, 1, 7, 0,22, 0.00,60.00,Saturday
135,48904615.70955593
3420,48904615.70955593
3738,6791184.0
2,7, 1, 7, 0,23, 0.00,60.00,Saturday
135,48904615.70955593
3420,48904615.70955593
3738,6791184.0
2,7, 1, 7, 0,24, 0.00,60.00,Saturday
135,48904615.70955593
3420,48904615.70955593
3738,6791184.0
2,8, 1, 8, 0, 1, 0.00,60.00,Sunday
135,46359235.70955593
3420,46359235.709555924
3738,6791184.0
2,8, 1, 8, 0, 2, 0.00,60.00,Sunday
135,46359235.70955593
3420,46359235.709555924
3738,6791184.0
2,8, 1, 8, 0, 3, 0.00,60.00,Sunday
135,46359235.70955593
3420,46359235.709555924
3738,6791184.0
2,8, 1, 8, 0, 4, 0.00,60.00,Sunday
135,46359235.70955593
3420,46359235.709555924
3738,6791184.0
2,8, 1, 8, 0, 5, 0.00,60.00,Sunday
135,46359235.70955593
3420,46359235.709555924
3738,6791184.0
2,8, 1, 8, 0, 6, 0.00,60.00,Sunday
135,46359235.70955593
3420,46359235.709555924
3738,6791184.0
2,8, 1, 8, 0, 7, 0.00,60.00,Sunday
135,66032185.73006148
3420,66032185.73006148
3738,6791184.0
2,8, 1, 8, 0, 8, 0.00,60.00,Sunday
135,53323580.330645084
3420,53323580.330645084
3738,6791184.0
2,8, 1, 8, 0, 9, 0.00,60.00,Sunday
135,46344166.24829911
3420,46344166.24829911
3738,6791184.0
2,8, 1, 8, 0,10, 0.00,60.00,Sunday
135,46288812.51597283
3420,46288812.51597283
3738,6791184.0
2,8, 1, 8, 0,11, 0.00,60.00,Sunday
135,47248994.40550516
3420,47248994.40550515
3738,6791184.0
2,8, 1, 8, 0,12, 0.00,60.00,Sunday
135,50817445.65558881
3420,50817445.65558882
3738,6791184.0
2,8, 1, 8, 0,13, 0.00,60.00,Sunday
135,54257587.574623495
3420,54257587.57462351
3738,6791184.0
2,8, 1, 8, 0,14, 0.00,60.00,Sunday
135,53674467.592210636
3420,53674467.59221064
3738,6791184.0
2,8, 1, 8, 0,15, 0.00,60.00,Sunday
135,54204522.47619737
3420,54204522.47619737
3738,6791184.0
2,8, 1, 8, 0,16, 0.00,60.00,Sunday
135,53467060.48374654
3420,53467060.48374655
3738,6791184.0
2,8, 1, 8, 0,17, 0.00,60.00,Sunday
135,50395969.2643733
3420,50395969.2643733
3738,6791184.0
2,8, 1, 8, 0,18, 0.00,60.00,Sunday
135,66276671.30593526
3420,66276671.30593526
3738,6791184.0
2,8, 1, 8, 0,19, 0.00,60.00,Sunday
135,57105773.81922845
3420,57105773.81922844
3738,6791184.0
2,8, 1, 8, 0,20, 0.00,60.00,Sunday
135,48904615.70955593
3420,48904615.70955593
3738,6791184.0
2,8, 1, 8, 0,21, 0.00,60.00,Sunday
135,48904615.70955593
3420,48904615.70955593
3738,6791184.0
2,8, 1, 8, 0,22, 0.00,60.00,Sunday
135,48904615.70955593
3420,48904615.70955593
3738,6791184.0
2,8, 1, 8, 0,23, 0.00,60.00,Sunday
135,48904615.70955593
3420,48904615.70955593
3738,6791184.0
2,8, 1, 8, 0,24, 0.00,60.00,Sunday
135,48904615.70955593
3420,48904615.70955593
3738,6791184.0
2,9, 1, 9, 0, 1, 0.00,60.00,Monday
135,57609860.1137362
3420,57609860.1137362
3738,6791184.0
2,9, 1, 9, 0, 2, 0.00,60.00,Monday
135,57609860.1137362
3420,57609860.1137362
3738,6791184.0
2,9, 1, 9, 0, 3, 0.00,60.00,Monday
135,57609860.1137362
3420,57609860.1137362
3738,6791184.0
2,9, 1, 9, 0, 4, 0.00,60.00,Monday
135,57609860.1137362
3420,57609860.1137362
3738,6791184.0
2,9, 1, 9, 0, 5, 0.00,60.00,Monday
135,57609860.1137362
3420,57609860.1137362
3738,6791184.0
2,9, 1, 9, 0, 6, 0.00,60.00,Monday
135,57609860.1137362
3420,57609860.1137362
3738,6791184.0
2,9, 1, 9, 0, 7, 0.00,60.00,Monday
135,128954907.55378672
3420,128954907.55378674
3738,6791184.0
2,9, 1, 9, 0, 8, 0.00,60.00,Monday
135,219972056.1688932
3420,219972056.1688932
3738,128118845.07190457
2,9, 1, 9, 0, 9, 0.00,60.00,Monday
135,314663739.5878771
3420,314663739.58787704
3738,76655935.93400125
2,9, 1, 9, 0,10, 0.00,60.00,Monday
135,275043627.22148687
3420,275043627.22148687
3738,49669848.650258586
2,9, 1, 9, 0,11, 0.00,60.00,Monday
135,271693845.51046276
3420,271693845.51046276
3738,14818254.062692476
2,9, 1, 9, 0,12, 0.00,60.00,Monday
135,290138245.1428083
3420,290138245.14280826
3738,20903855.801125154
2,9, 1, 9, 0,13, 0.00,60.00,Monday
135,286121016.32933486
3420,286121016.3293348
3738,31355574.119236946
2,9, 1, 9, 0,14, 0.00,60.00,Monday
135,303218729.1103152
3420,303218729.11031514
3738,26214926.955547072
2,9, 1, 9, 0,15, 0.00,60.00,Monday
135,299259170.91483444
3420,299259170.9148344
3738,20131560.568393562
2,9, 1, 9, 0,16, 0.00,60.00,Monday
135,308176325.08806
3420,308176325.08806
3738,15659338.461810222
2,9, 1, 9, 0,17, 0.00,60.00,Monday
135,315994187.6953069
3420,315994187.69530684
3738,25336253.131121542
2,9, 1, 9, 0,18, 0.00,60.00,Monday
135,241998872.7548232
3420,241998872.75482324
3738,11101276.780673336
2,9, 1, 9, 0,19, 0.00,60.00,Monday
135,131981484.38520586
3420,131981484.38520586
3738,18377550.03185045
2,9, 1, 9, 0,20, 0.00,60.00,Monday
135,113569604.38930234
3420,113569604.38930234
3738,23029204.27506795
2,9, 1, 9, 0,21, 0.00,60.00,Monday
135,103292694.96209224
3420,103292694.96209224
3738,14041719.320868995
2,9, 1, 9, 0,22, 0.00,60.00,Monday
135,99718535.69299862
3420,99718535.69299863
3738,18717667.06498609
2,9, 1, 9, 0,23, 0.00,60.00,Monday
135,77772390.65670998
3420,77772390.65670998
3738,6791184.0
2,9, 1, 9, 0,24, 0.00,60.00,Monday
135,72442274.24247962
3420,72442274.24247962
3738,6791184.0
2,10, 1,10, 0, 1, 0.00,60.00,Tuesday
135,57996196.7332391
3420,57996196.7332391
3738,6791184.0
2,10, 1,10, 0, 2, 0.00,60.00,Tuesday
135,57609860.1137362
3420,57609860.1137362
3738,6791184.0
2,10, 1,10, 0, 3, 0.00,60.00,Tuesday
135,57609860.1137362
3420,57609860.1137362
3738,6791184.0
2,10, 1,10, 0, 4, 0.00,60.00,Tuesday
135,57609860.1137362
3420,57609860.1137362
3738,6791184.0
2,10, 1,10, 0, 5, 0.00,60.00,Tuesday
135,57609860.1137362
3420,57609860.1137362
3738,6791184.0
2,10, 1,10, 0, 6, 0.00,60.00,Tuesday
135,57609860.1137362
3420,57609860.1137362
3738,6791184.0
2,10, 1,10, 0, 7, 0.00,60.00,Tuesday
135,107088875.14078552
3420,107088875.14078555
3738,6791184.0
2,10, 1,10, 0, 8, 0.00,60.00,Tuesday
135,185499393.31522274
3420,185499393.31522277
3738,122710898.82973939
2,10, 1,10, 0, 9, 0.00,60.00,Tuesday
135,308481178.098261
3420,308481178.098261
3738,78764404.97229174
2,10, 1,10, 0,10, 0.00,60.00,Tuesday
135,271806896.0245901
3420,271806896.0245901
3738,56073605.39678232
2,10, 1,10, 0,11, 0.00,60.00,Tuesday
135,264556066.77812022
3420,264556066.77812016
3738,46231250.6250405
2,10, 1,10, 0,12, 0.00,60.00,Tuesday
135,274272336.68894875
3420,274272336.68894875
3738,56005494.722958624
2,10, 1,10, 0,13, 0.00,60.00,Tuesday
135,285760294.61326146
3420,285760294.61326146
3738,38826128.4276489
2,10, 1,10, 0,14, 0.00,60.00,Tuesday
135,291005181.8736675
3420,291005181.8736674
3738,30713245.92351706
2,10, 1,10, 0,15, 0.00,60.00,Tuesday
135,282206848.9669949
3420,282206848.9669949
3738,16029271.224457018
2,10, 1,10, 0,16, 0.00,60.00,Tuesday
135,284316154.0032048
3420,284316154.00320476
3738,17497743.893050645
2,10, 1,10, 0,17, 0.00,60.00,Tuesday
135,296029614.08706987
3420,296029614.08706987
3738,23415559.302446224
2,10, 1,10, 0,18, 0.00,60.00,Tuesday
135,247252459.33611935
3420,247252459.33611938
3738,22539418.1310788
2,10, 1,10, 0,19, 0.00,60.00,Tuesday
135,131919308.1240409
3420,131919308.12404087
3738,52031261.50586119
2,10, 1,10, 0,20, 0.00,60.00,Tuesday
135,113569604.38930234
3420,113569604.38930234
3738,56785309.42255434
2,10, 1,10, 0,21, 0.00,60.00,Tuesday
135,103033392.69487895
3420,103033392.69487895
3738,66848499.35402182
2,10, 1,10, 0,22, 0.00,60.00,Tuesday
135,99948717.97039083
3420,99948717.97039086
3738,80563139.1093192
2,10, 1,10, 0,23, 0.00,60.00,Tuesday
135,77772390.65670998
3420,77772390.65670998
3738,6791184.0
2,10, 1,10, 0,24, 0.00,60.00,Tuesday
135,72442274.24247962
3420,72442274.24247962
3738,6791184.0
2,11, 1,11, 0, 1, 0.00,60.00,Wednesday
135,57996196.7332391
3420,57996196.7332391
3738,6791184.0
2,11, 1,11, 0, 2, 0.00,60.00,Wednesday
135,57609860.1137362
3420,57609860.1137362
3738,6791184.0
2,11, 1,11, 0, 3, 0.00,60.00,Wednesday
135,57609860.1137362
3420,57609860.1137362
3738,6791184.0
2,11, 1,11, 0, 4, 0.00,60.00,Wednesday
135,57609860.1137362
3420,57609860.1137362
3738,6791184.0
2,11, 1,11, 0, 5, 0.00,60.00,Wednesday
135,57609860.1137362
3420,57609860.1137362
3738,6791184.0
2,11, 1,11, 0, 6, 0.00,60.00,Wednesday
135,57609860.1137362
3420,57609860.1137362
3738,6791184.0
2,11, 1,11, 0, 7, 0.00,60.00,Wednesday
135,102204249.93994755
3420,102204249.93994758
3738,6791184.0
2,11, 1,11, 0, 8, 0.00,60.00,Wednesday
135,177128776.44502288
3420,177128776.44502285
3738,69917049.4308232
2,11, 1,11, 0, 9, 0.00,60.00,Wednesday
135,301774583.9230322
3420,301774583.9230322
3738,49948107.536484994
2,11, 1,11, 0,10, 0.00,60.00,Wednesday
135,267798019.09885633
3420,267798019.09885627
3738,32755456.599698268
2,11, 1,11, 0,11, 0.00,60.00,Wednesday
135,262878027.24371523
3420,262878027.2437152
3738,11866389.534790624
2,11, 1,11, 0,12, 0.00,60.00,Wednesday
135,271548686.69515103
3420,271548686.695151
3738,25582482.39256049
2,11, 1,11, 0,13, 0.00,60.00,Wednesday
135,272141442.93468946
3420,272141442.93468946
3738,33176793.50108307
2,11, 1,11, 0,14, 0.00,60.00,Wednesday
135,274360896.8669309
3420,274360896.8669309
3738,26598094.213513866
2,11, 1,11, 0,15, 0.00,60.00,Wednesday
135,260332117.57188824
3420,260332117.57188815
3738,20141632.45427119
2,11, 1,11, 0,16, 0.00,60.00,Wednesday
135,260582270.0146227
3420,260582270.01462263
3738,19821868.466216266
2,11, 1,11, 0,17, 0.00,60.00,Wednesday
135,277624639.4199811
3420,277624639.41998106
3738,48215125.43585653
2,11, 1,11, 0,18, 0.00,60.00,Wednesday
135,241998192.78615052
3420,241998192.78615052
3738,54911896.36171603
2,11, 1,11, 0,19, 0.00,60.00,Wednesday
135,131501837.06753659
3420,131501837.06753659
3738,80546558.860087
2,11, 1,11, 0,20, 0.00,60.00,Wednesday
135,113569604.38930234
3420,113569604.38930234
3738,91256538.11903732
2,11, 1,11, 0,21, 0.00,60.00,Wednesday
135,103547529.32290669
3420,103547529.32290672
3738,92012656.38741678
2,11, 1,11, 0,22, 0.00,60.00,Wednesday
135,100864841.14573675
3420,100864841.14573678
3738,103970737.36552182
2,11, 1,11, 0,23, 0.00,60.00,Wednesday
135,77772390.65670998
3420,77772390.65670998
3738,6791184.0
2,11, 1,11, 0,24, 0.00,60.00,Wednesday
135,72442274.24247962
3420,72442274.24247962
3738,6791184.0
2,12, 1,12, 0, 1, 0.00,60.00,Thursday
135,57996196.7332391
3420,57996196.7332391
3738,6791184.0
2,12, 1,12, 0, 2, 0.00,60.00,Thursday
135,57609860.1137362
3420,57609860.1137362
3738,6791184.0
2,12, 1,12, 0, 3, 0.00,60.00,Thursday
135,57609860.1137362
3420,57609860.1137362
3738,6791184.0
2,12, 1,12, 0, 4, 0.00,60.00,Thursday
135,57609860.1137362
3420,57609860.1137362
3738,6791184.0
2,12, 1,12, 0, 5, 0.00,60.00,Thursday
135,57609860.1137362
3420,57609860.1137362
3738,6791184.0
2,12, 1,12, 0, 6, 0.00,60.00,Thursday
135,57609860.1137362
3420,57609860.1137362
3738,6791184.0
2,12, 1,12, 0, 7, 0.00,60.00,Thursday
135,109079755.01281878
3420,109079755.0128188
3738,6791184.0
2,12, 1,12, 0, 8, 0.00,60.00,Thursday
135,188781619.10862
3420,188781619.10861996
3738,137168161.78760073
2,12, 1,12, 0, 9, 0.00,60.00,Thursday
135,310364471.75256187
3420,310364471.75256187
3738,89628240.1679734
2,12, 1,12, 0,10, 0.00,60.00,Thursday
135,269123409.4954009
3420,269123409.4954009
3738,77272949.41383463
2,12, 1,12, 0,11, 0.00,60.00,Thursday
135,262993771.19173163
3420,262993771.19173157
3738,60499088.64062364
2,12, 1,12, 0,12, 0.00,60.00,Thursday
135,275159102.57774705
3420,275159102.57774705
3738,54119418.22450281
2,12, 1,12, 0,13, 0.00,60.00,Thursday
135,293307325.94436795
3420,293307325.94436795
3738,46280938.61238947
2,12, 1,12, 0,14, 0.00,60.00,Thursday
135,285974680.6121504
3420,285974680.6121503
3738,40152845.89918004
2,12, 1,12, 0,15, 0.00,60.00,Thursday
135,270378343.4331063
3420,270378343.4331063
3738,22317600.960874572
2,12, 1,12, 0,16, 0.00,60.00,Thursday
135,270180845.3986625
3420,270180845.39866245
3738,30853939.793714467
2,12, 1,12, 0,17, 0.00,60.00,Thursday
135,288767475.57328784
3420,288767475.5732878
3738,38376853.80582209
2,12, 1,12, 0,18, 0.00,60.00,Thursday
135,250552087.21120235
3420,250552087.21120235
3738,53594292.429280005
2,12, 1,12, 0,19, 0.00,60.00,Thursday
135,132967362.63833739
3420,132967362.63833737
3738,79759638.00970533
2,12, 1,12, 0,20, 0.00,60.00,Thursday
135,113569604.38930234
3420,113569604.38930234
3738,77397513.16906783
2,12, 1,12, 0,21, 0.00,60.00,Thursday
135,104102937.00543809
3420,104102937.00543812
3738,81071509.03318423
2,12, 1,12, 0,22, 0.00,60.00,Thursday
135,101214816.94677854
3420,101214816.94677857
3738,83558347.45850404
2,12, 1,12, 0,23, 0.00,60.00,Thursday
135,77772390.65670998
3420,77772390.65670998
3738,6791184.0
2,12, 1,12, 0,24, 0.00,60.00,Thursday
135,72442274.24247962
3420,72442274.24247962
3738,6791184.0
2,13, 1,13, 0, 1, 0.00,60.00,Friday
135,57996196.7332391
3420,57996196.7332391
3738,6791184.0