Program Version,EnergyPlus, Version 9.6.0-f420c06a69, YMD=2022.07.05 15:12
1,5,Environment Title[],Latitude[deg],Longitude[deg],Time Zone[],Elevation[m]
2,8,Day of Simulation[],Month[],Day of Month[],DST Indicator[1=yes 0=no],Hour[],StartMinute[],EndMinute[],DayType
3,5,Cumulative Day of Simulation[],Month[],Day of Month[],DST Indicator[1=yes 0=no],DayType  ! When Daily Meters Requested
4,2,Cumulative Days of Simulation[],Month[]  ! When Monthly Meters Requested
5,1,Cumulative Days of Simulation[] ! When Run Period Meters Requested
6,1,Calendar Year of Simulation[] ! When Annual Meters Requested
135,1,Electricity:Facility [J] !Hourly
3420,1,ElectricityNet:Facility [J] !Hourly
3738,1,NaturalGas:Facility [J] !Hourly
End of Data Dictionary
1,RUNPERIOD 1,  35.04,-106.62,  -7.00,1619.00
2,1, 1, 1, 0, 1, 0.00,60.00,Holiday
135,46359074.93593144
3420,46359074.93593143
3738,6791184.0
2,1, 1, 1, 0, 2, 0.00,60.00,Holiday
135,46359235.70955593
3420,46359235.709555924
3738,6791184.0
2,1, 1, 1, 0, 3, 0.00,60.00,Holiday
135,46359235.70955593
3420,46359235.709555924
3738,6791184.0
2,1, 1, 1, 0, 4, 0.00,60.00,Holiday
135,46359235.70955593
3420,46359235.709555924
3738,6791184.0
2,1, 1, 1, 0, 5, 0.00,60.00,Holiday
135,46359235.70955593
3420,46359235.709555924
3738,6791184.0
2,1, 1, 1, 0, 6, 0.00,60.00,Holiday
135,46359235.70955593
3420,46359235.709555924
3738,6791184.0
2,1, 1, 1, 0, 7, 0.00,60.00,Holiday
135,66032185.73006148
3420,66032185.73006148
3738,6791184.0
2,1, 1, 1, 0, 8, 0.00,60.00,Holiday
135,50074623.774579875
3420,50074623.774579875
3738,6791184.0
2,1, 1, 1, 0, 9, 0.00,60.00,Holiday
135,46351708.9331394
3420,46351708.9331394
3738,6791184.0
2,1, 1, 1, 0,10, 0.00,60.00,Holiday
135,46288813.17904917
3420,46288813.179049164
3738,6791184.0
2,1, 1, 1, 0,11, 0.00,60.00,Holiday
135,50009342.363199614
3420,50009342.363199614
3738,6791184.0
2,1, 1, 1, 0,12, 0.00,60.00,Holiday
135,53617732.55272024
3420,53617732.55272024
3738,6791184.0
2,1, 1, 1, 0,13, 0.00,60.00,Holiday
135,53634290.22678877
3420,53634290.22678876
3738,6791184.0
2,1, 1, 1, 0,14, 0.00,60.00,Holiday
135,58165555.4574862
3420,58165555.45748622
3738,6791184.0
2,1, 1, 1, 0,15, 0.00,60.00,Holiday
135,62026144.28259239
3420,62026144.28259239
3738,6791184.0
2,1, 1, 1, 0,16, 0.00,60.00,Holiday
135,62605261.924326405
3420,62605261.924326405
3738,6791184.0
2,1, 1, 1, 0,17, 0.00,60.00,Holiday
135,50224406.74534619
3420,50224406.74534619
3738,6791184.0
2,1, 1, 1, 0,18, 0.00,60.00,Holiday
135,67534969.93162571
3420,67534969.93162571
3738,6791184.0
2,1, 1, 1, 0,19, 0.00,60.00,Holiday
135,57105773.81922845
3420,57105773.81922844
3738,6791184.0
2,1, 1, 1, 0,20, 0.00,60.00,Holiday
135,48904615.70955593
3420,48904615.70955593
3738,6791184.0
2,1, 1, 1, 0,21, 0.00,60.00,Holiday
135,48904615.70955593
3420,48904615.70955593
3738,6791184.0
2,1, 1, 1, 0,22, 0.00,60.00,Holiday
135,48904615.70955593
3420,48904615.70955593
3738,6791184.0
2,1, 1, 1, 0,23, 0.00,60.00,Holiday
135,48904615.70955593
3420,48904615.70955593
3738,6791184.0
2,1, 1, 1, 0,24, 0.00,60.00,Holiday
135,48904615.70955593
3420,48904615.70955593
3738,6791184.0
2,2, 1, 2, 0, 1, 0.00,60.00,Monday
135,57609860.1137362
3420,57609860.1137362
3738,6791184.0
2,2, 1, 2, 0, 2, 0.00,60.00,Monday
135,57609860.1137362
3420,57609860.1137362
3738,6791184.0
2,2, 1, 2, 0, 3, 0.00,60.00,Monday
135,57609860.1137362
3420,57609860.1137362
3738,6791184.0
2,2, 1, 2, 0, 4, 0.00,60.00,Monday
135,57609860.1137362
3420,57609860.1137362
3738,6791184.0
2,2, 1, 2, 0, 5, 0.00,60.00,Monday
135,57609860.1137362
3420,57609860.1137362
3738,6791184.0
2,2, 1, 2, 0, 6, 0.00,60.00,Monday
135,57609860.1137362
3420,57609860.1137362
3738,6791184.0
2,2, 1, 2, 0, 7, 0.00,60.00,Monday
135,137296304.18115827
3420,137296304.18115827
3738,6791184.0
2,2, 1, 2, 0, 8, 0.00,60.00,Monday
135,228091710.0508986
3420,228091710.0508986
3738,147577462.2909266
2,2, 1, 2, 0, 9, 0.00,60.00,Monday
135,310928566.17060184
3420,310928566.17060184
3738,92519461.25435951
2,2, 1, 2, 0,10, 0.00,60.00,Monday
135,270881865.80048376
3420,270881865.8004837
3738,64104549.62432517
2,2, 1, 2, 0,11, 0.00,60.00,Monday
135,266825978.4651965
3420,266825978.46519646
3738,26002213.802575894
2,2, 1, 2, 0,12, 0.00,60.00,Monday
135,286238561.40794075
3420,286238561.40794075
3738,20876803.489152778
2,2, 1, 2, 0,13, 0.00,60.00,Monday
135,288356518.2716734
3420,288356518.2716734
3738,31334359.881758783
2,2, 1, 2, 0,14, 0.00,60.00,Monday
135,302975525.7747885
3420,302975525.7747885
3738,26165959.05339483
2,2, 1, 2, 0,15, 0.00,60.00,Monday
135,294972021.31000483
3420,294972021.3100048
3738,16663111.546087924
2,2, 1, 2, 0,16, 0.00,60.00,Monday
135,299410344.29420304
3420,299410344.29420304
3738,19076358.658423744
2,2, 1, 2, 0,17, 0.00,60.00,Monday
135,298389053.9474881
3420,298389053.94748807
3738,20696594.044879485
2,2, 1, 2, 0,18, 0.00,60.00,Monday
135,237624719.45918894
3420,237624719.45918894
3738,24658594.589504886
2,2, 1, 2, 0,19, 0.00,60.00,Monday
135,131458533.53394982
3420,131458533.5339498
3738,57891981.091293484
2,2, 1, 2, 0,20, 0.00,60.00,Monday
135,116433380.00818448
3420,116433380.00818448
3738,72469446.82990465
2,2, 1, 2, 0,21, 0.00,60.00,Monday
135,107904137.86016025
3420,107904137.86016026
3738,84419336.25488532
2,2, 1, 2, 0,22, 0.00,60.00,Monday
135,105912372.76109348
3420,105912372.7610935
3738,86039928.28257765
2,2, 1, 2, 0,23, 0.00,60.00,Monday
135,77772390.65670998
3420,77772390.65670998
3738,6791184.0
2,2, 1, 2, 0,24, 0.00,60.00,Monday
135,72442274.24247962
3420,72442274.24247962
3738,6791184.0
2,3, 1, 3, 0, 1, 0.00,60.00,Tuesday
135,57996196.7332391
3420,57996196.7332391
3738,6791184.0
2,3, 1, 3, 0, 2, 0.00,60.00,Tuesday
135,57609860.1137362
3420,57609860.1137362
3738,6791184.0
2,3, 1, 3, 0, 3, 0.00,60.00,Tuesday
135,57609860.1137362
3420,57609860.1137362
3738,6791184.0
2,3, 1, 3, 0, 4, 0.00,60.00,Tuesday
135,57609860.1137362
3420,57609860.1137362
3738,6791184.0
2,3, 1, 3, 0, 5, 0.00,60.00,Tuesday
135,57609860.1137362
3420,57609860.1137362
3738,6791184.0
2,3, 1, 3, 0, 6, 0.00,60.00,Tuesday
135,57609860.1137362
3420,57609860.1137362
3738,6791184.0
2,3, 1, 3, 0, 7, 0.00,60.00,Tuesday
135,112102812.71491654
3420,112102812.71491656
3738,6791184.0
2,3, 1, 3, 0, 8, 0.00,60.00,Tuesday
135,192408370.01605332
3420,192408370.0160533
3738,131270974.34457883
2,3, 1, 3, 0, 9, 0.00,60.00,Tuesday
135,311377468.3005356
3420,311377468.30053556
3738,77011765.8614414
2,3, 1, 3, 0,10, 0.00,60.00,Tuesday
135,275991645.6933976
3420,275991645.6933976
3738,37032265.1894799
2,3, 1, 3, 0,11, 0.00,60.00,Tuesday
135,275027993.38438785
3420,275027993.38438785
3738,12356874.77290462
2,3, 1, 3, 0,12, 0.00,60.00,Tuesday
135,293027824.6580732
3420,293027824.6580732
3738,23129488.975600578
2,3, 1, 3, 0,13, 0.00,60.00,Tuesday
135,294632280.35879445
3420,294632280.3587944
3738,31312393.36103994
2,3, 1, 3, 0,14, 0.00,60.00,Tuesday
135,311631511.72635615
3420,311631511.72635615
3738,26179763.885574874
2,3, 1, 3, 0,15, 0.00,60.00,Tuesday
135,297469091.1916596
3420,297469091.1916596
3738,20133738.27406303
2,3, 1, 3, 0,16, 0.00,60.00,Tuesday
135,301048099.2336246
3420,301048099.2336245
3738,15641933.428970817
2,3, 1, 3, 0,17, 0.00,60.00,Tuesday
135,304381337.59458923
3420,304381337.5945892
3738,21131219.676558174
2,3, 1, 3, 0,18, 0.00,60.00,Tuesday
135,241555527.0717467
3420,241555527.07174665
3738,18150591.1484727
2,3, 1, 3, 0,19, 0.00,60.00,Tuesday
135,131866343.2953921
3420,131866343.2953921
3738,35254282.540325396
2,3, 1, 3, 0,20, 0.00,60.00,Tuesday
135,113569604.38930234
3420,113569604.38930234
3738,55618240.98964385
2,3, 1, 3, 0,21, 0.00,60.00,Tuesday
135,103004750.63109705
3420,103004750.63109705
3738,64520228.30643645
2,3, 1, 3, 0,22, 0.00,60.00,Tuesday
135,100314428.85157591
3420,100314428.85157594
3738,93974720.59014836
2,3, 1, 3, 0,23, 0.00,60.00,Tuesday
135,77772390.65670998
3420,77772390.65670998
3738,6791184.0
2,3, 1, 3, 0,24, 0.00,60.00,Tuesday
135,72442274.24247962
3420,72442274.24247962
3738,6791184.0
2,4, 1, 4, 0, 1, 0.00,60.00,Wednesday
135,57996196.7332391
3420,57996196.7332391
3738,6791184.0
2,4, 1, 4, 0, 2, 0.00,60.00,Wednesday
135,57609860.1137362
3420,57609860.1137362
3738,6791184.0
2,4, 1, 4, 0, 3, 0.00,60.00,Wednesday
135,57609860.1137362
3420,57609860.1137362
3738,6791184.0
2,4, 1, 4, 0, 4, 0.00,60.00,Wednesday
135,57609860.1137362
3420,57609860.1137362
3738,6791184.0
2,4, 1, 4, 0, 5, 0.00,60.00,Wednesday
135,57609860.1137362
3420,57609860.1137362
3738,6791184.0
2,4, 1, 4, 0, 6, 0.00,60.00,Wednesday
135,57609860.1137362
3420,57609860.1137362
3738,6791184.0
2,4, 1, 4, 0, 7, 0.00,60.00,Wednesday
135,107774072.52574906
3420,107774072.52574907
3738,6791184.0
2,4, 1, 4, 0, 8, 0.00,60.00,Wednesday
135,190977085.51973185
3420,190977085.51973185
3738,152549075.17350966
2,4, 1, 4, 0, 9, 0.00,60.00,Wednesday
135,309442795.73769474
3420,309442795.7376947
3738,90061261.93808414
2,4, 1, 4, 0,10, 0.00,60.00,Wednesday
135,270429451.7583626
3420,270429451.7583626
3738,61809308.47868821
2,4, 1, 4, 0,11, 0.00,60.00,Wednesday
135,264628704.1230281
3420,264628704.1230281
3738,42705920.408390485
2,4, 1, 4, 0,12, 0.00,60.00,Wednesday
135,278718611.7130605
3420,278718611.7130605
3738,27237330.092575423
2,4, 1, 4, 0,13, 0.00,60.00,Wednesday
135,284511525.7473638
3420,284511525.7473638
3738,31351205.050687008
2,4, 1, 4, 0,14, 0.00,60.00,Wednesday
135,289894129.4150424
3420,289894129.4150424
3738,26189702.813008703
2,4, 1, 4, 0,15, 0.00,60.00,Wednesday
135,275182970.10820526
3420,275182970.1082052
3738,20162358.474987995
2,4, 1, 4, 0,16, 0.00,60.00,Wednesday
135,274853282.9723808
3420,274853282.97238076
3738,15652705.375646915
2,4, 1, 4, 0,17, 0.00,60.00,Wednesday
135,294556686.5135559
3420,294556686.5135559
3738,25318578.899761163
2,4, 1, 4, 0,18, 0.00,60.00,Wednesday
135,251267316.60602063
3420,251267316.60602063
3738,20631977.949197866
2,4, 1, 4, 0,19, 0.00,60.00,Wednesday
135,131888589.07372302
3420,131888589.07372302
3738,37714540.541103825
2,4, 1, 4, 0,20, 0.00,60.00,Wednesday
135,113569604.38930234
3420,113569604.38930234
3738,52554108.24589509
2,4, 1, 4, 0,21, 0.00,60.00,Wednesday
135,102913361.90140839
3420,102913361.90140839
3738,65833880.561717674
2,4, 1, 4, 0,22, 0.00,60.00,Wednesday
135,99099294.84500085
3420,99099294.84500086
3738,77140171.07041092
2,4, 1, 4, 0,23, 0.00,60.00,Wednesday
135,77772390.65670998
3420,77772390.65670998
3738,6791184.0
2,4, 1, 4, 0,24, 0.00,60.00,Wednesday
135,72442274.24247962
3420,72442274.24247962
3738,6791184.0
2,5, 1, 5, 0, 1, 0.00,60.00,Thursday
135,57996196.7332391
3420,57996196.7332391
3738,6791184.0
2,5, 1, 5, 0, 2, 0.00,60.00,Thursday
135,57609860.1137362
3420,57609860.1137362
3738,6791184.0
2,5, 1, 5, 0, 3, 0.00,60.00,Thursday
135,57609860.1137362
3420,57609860.1137362
3738,6791184.0
2,5, 1, 5, 0, 4, 0.00,60.00,Thursday
135,57609860.1137362
3420,57609860.1137362
3738,6791184.0
2,5, 1, 5, 0, 5, 0.00,60.00,Thursday
135,57609860.1137362
3420,57609860.1137362
3738,6791184.0
2,5, 1, 5, 0, 6, 0.00,60.00,Thursday
135,57609860.1137362
3420,57609860.1137362
3738,6791184.0
2,5, 1, 5, 0, 7, 0.00,60.00,Thursday
135,100664134.13277073
3420,100664134.13277075
3738,6791184.0
2,5, 1, 5, 0, 8, 0.00,60.00,Thursday
135,179218138.09158877
3420,179218138.09158877
3738,123385563.81631427
2,5, 1, 5, 0, 9, 0.00,60.00,Thursday
135,310140494.9575479
3420,310140494.9575479
3738,66366961.95607806
2,5, 1, 5, 0,10, 0.00,60.00,Thursday
135,278302077.47215706
3420,278302077.47215706
3738,21145617.81198257
2,5, 1, 5, 0,11, 0.00,60.00,Thursday
135,277656547.2238385
3420,277656547.22383845
3738,11332705.54928314
2,5, 1, 5, 0,12, 0.00,60.00,Thursday
135,290287840.52319187
3420,290287840.5231918
3738,20890782.0365476
2,5, 1, 5, 0,13, 0.00,60.00,Thursday
135,290349019.8888911
3420,290349019.8888911
3738,31320858.562127728
2,5, 1, 5, 0,14, 0.00,60.00,Thursday
135,311941214.5494007
3420,311941214.54940075
3738,26189007.473221518
2,5, 1, 5, 0,15, 0.00,60.00,Thursday
135,305260067.94258845
3420,305260067.9425884
3738,20203910.290040478
2,5, 1, 5, 0,16, 0.00,60.00,Thursday
135,309027881.6614876
3420,309027881.6614876
3738,15641467.481528439
2,5, 1, 5, 0,17, 0.00,60.00,Thursday
135,312443656.95504934
3420,312443656.9550493
3738,25322054.82401494
2,5, 1, 5, 0,18, 0.00,60.00,Thursday
135,244621806.36539933
3420,244621806.36539933
3738,11106437.11808634
2,5, 1, 5, 0,19, 0.00,60.00,Thursday
135,132384235.43671827
3420,132384235.43671827
3738,18515542.883175965
2,5, 1, 5, 0,20, 0.00,60.00,Thursday
135,113569604.38930234
3420,113569604.38930234
3738,38182825.55833641
2,5, 1, 5, 0,21, 0.00,60.00,Thursday
135,102910895.06207252
3420,102910895.06207252
3738,50500896.487481296
2,5, 1, 5, 0,22, 0.00,60.00,Thursday
135,98331323.74705626
3420,98331323.74705628
3738,64229737.95698746
2,5, 1, 5, 0,23, 0.00,60.00,Thursday
135,77772390.65670998
3420,77772390.65670998
3738,6791184.0
2,5, 1, 5, 0,24, 0.00,60.00,Thursday
135,72442274.24247962
3420,72442274.24247962
3738,6791184.0
2,6, 1, 6, 0, 1, 0.00,60.00,Friday
135,57996196.7332391
3420,57996196.7332391
3738,6791184.0
2,6, 1, 6, 0, 2, 0.00,60.00,Friday
135,57609860.1137362
3420,57609860.1137362
3738,6791184.0
2,6, 1, 6, 0, 3, 0.00,60.00,Friday
135,57609860.1137362
3420,57609860.1137362
3738,6791184.0
2,6, 1, 6, 0, 4, 0.00,60.00,Friday
135,57609860.1137362
3420,57609860.1137362
3738,6791184.0
2,6, 1, 6, 0, 5, 0.00,60.00,Friday
135,57609860.1137362
3420,57609860.1137362
3738,6791184.0
2,6, 1, 6, 0, 6, 0.00,60.00,Friday
135,57609860.1137362
3420,57609860.1137362
3738,6791184.0
2,6, 1, 6, 0, 7, 0.00,60.00,Friday
135,101997452.84366892
3420,101997452.84366894
3738,6791184.0
2,6, 1, 6, 0, 8, 0.00,60.00,Friday
135,185460719.95721114
3420,185460719.95721114
3738,96496438.02264577
2,6, 1, 6, 0, 9, 0.00,60.00,Friday
135,303840896.2330677
3420,303840896.2330677
3738,65906452.66383896
2,6, 1, 6, 0,10, 0.00,60.00,Friday
135,266138471.46599954
3420,266138471.46599954
3738,54604492.88497262
2,6, 1, 6, 0,11, 0.00,60.00,Friday
135,258924727.32510418
3420,258924727.32510412
3738,40903282.145050995
2,6, 1, 6, 0,12, 0.00,60.00,Friday
135,270206079.58150315
3420,270206079.5815031
3738,27206071.805317707
2,6, 1, 6, 0,13, 0.00,60.00,Friday
135,273740109.64014107
3420,273740109.64014107
3738,27931784.282835804
2,6, 1, 6, 0,14, 0.00,60.00,Friday
135,294194401.44817454
3420,294194401.44817454
3738,27527541.68154288
2,6, 1, 6, 0,15, 0.00,60.00,Friday
135,283591916.6899611
3420,283591916.689961
3738,18966272.539993905
2,6, 1, 6, 0,16, 0.00,60.00,Friday
135,275094936.9181758
3420,275094936.91817576
3738,15649712.089421328
2,6, 1, 6, 0,17, 0.00,60.00,Friday
135,285036011.6872842
3420,285036011.6872841
3738,25324528.157734875
2,6, 1, 6, 0,18, 0.00,60.00,Friday
135,237664997.39496225
3420,237664997.39496225
3738,30487474.77943867
2,6, 1, 6, 0,19, 0.00,60.00,Friday
135,131176996.39495659
3420,131176996.39495659
3738,52169956.47877459
2,6, 1, 6, 0,20, 0.00,60.00,Friday
135,113569604.38930234
3420,113569604.38930234
3738,61822126.63877179
2,6, 1, 6, 0,21, 0.00,60.00,Friday
135,103121737.33664268
3420,103121737.33664268
3738,85511396.76103455
2,6, 1, 6, 0,22, 0.00,60.00,Friday
135,99830494.88155732
3420,99830494.88155733
3738,90110294.7494963
2,6, 1, 6, 0,23, 0.00,60.00,Friday
135,77772390.65670998
3420,77772390.65670998
3738,6791184.0
2,6, 1, 6, 0,24, 0.00,60.00,Friday
135,72442274.24247962
3420,72442274.24247962
3738,6791184.0
2,7, 1, 7, 0, 1, 0.00,60.00,Saturday
135,46745513.81922844
3420,46745513.81922843
3738,6791184.0
2,7, 1, 7, 0, 2, 0.00,60.00,Saturday
135,46359235.70955593
3420,46359235.709555924
3738,6791184.0
2,7, 1, 7, 0, 3, 0.00,60.00,Saturday
135,46359235.70955593
3420,46359235.709555924
3738,6791184.0
2,7, 1, 7, 0, 4, 0.00,60.00,Saturday
135,46359235.70955593
3420,46359235.709555924
3738,6791184.0
2,7, 1, 7, 0, 5, 0.00,60.00,Saturday
135,46359235.70955593
3420,46359235.709555924
3738,6791184.0
2,7, 1, 7, 0, 6, 0.00,60.00,Saturday
135,46359235.70955593
3420,46359235.709555924
3738,6791184.0
2,7, 1, 7, 0, 7, 0.00,60.00,Saturday
135,110004489.53631109
3420,110004489.53631109
3738,6791184.0
2,7, 1, 7, 0, 8, 0.00,60.00,Saturday
135,136421222.98074257
3420,136421222.98074257
3738,112836964.76591222
2,7, 1, 7, 0, 9, 0.00,60.00,Saturday
135,131540896.63496238
3420,131540896.63496237
3738,89424837.97008215
2,7, 1, 7, 0,10, 0.00,60.00,Saturday
135,134193576.45151158
3420,134193576.45151156
3738,70373416.8376852
2,7, 1, 7, 0,11, 0.00,60.00,Saturday
135,127382878.9988918
3420,127382878.9988918
3738,38833350.51705442
2,7, 1, 7, 0,12, 0.00,60.00,Saturday
135,136449533.301457
3420,136449533.30145702
3738,9319271.421481509
2,7, 1, 7, 0,13, 0.00,60.00,Saturday
135,96378310.93471983
3420,96378310.93471983
3738,6791184.0
2,7, 1, 7, 0,14, 0.00,60.00,Saturday
135,86594868.6042524
3420,86594868.60425241
3738,6791184.0
2,7, 1, 7, 0,15, 0.00,60.00,Saturday
135,80777988.06353001
3420,80777988.06353001
3738,6791184.0
2,7, 1, 7, 0,16, 0.00,60.00,Saturday
135,76233398.28453368
3420,76233398.28453368
3738,6791184.0
2,7, 1, 7, 0,17, 0.00,60.00,Saturday
135,78316963.22306694
3420,78316963.22306694
3738,9936726.333881024
2,7, 1, 7, 0,18, 0.00,60.00,Saturday
135,83077160.33306564
3420,83077160.33306564
3738,27360631.46596477
2,7, 1, 7, 0,19, 0.00,60.00,Saturday
135,66276703.53612528
3420,66276703.53612528
3738,6791184.0
2,7, 1, 7, 0,20, 0.00,60.00,Saturday
135,49290893.81922844
3420,49290893.81922844
3738,6791184.0
2,7, 1, 7, 0,21, 0.00,60.00,Saturday
135,48904615.70955593
3420,48904615.70955593
3738,6791184.0
2,7, 1, 7, 0,22, 0.00,60.00,Saturday
135,48904615.70955593
3420,48904615.70955593
3738,6791184.0
2,7, 1, 7, 0,23, 0.00,60.00,Saturday
135,48904615.70955593
3420,48904615.70955593
3738,6791184.0
2,7, 1, 7, 0,24, 0.00,60.00,Saturday
135,48904615.70955593
3420,48904615.70955593
3738,6791184.0
2,8, 1, 8, 0, 1, 0.00,60.00,Sunday
135,46359235.70955593
3420,46359235.709555924
3738,6791184.0
2,8, 1, 8, 0, 2, 0.00,60.00,Sunday
135,46359235.70955593
3420,46359235.709555924
3738,6791184.0
2,8, 1, 8, 0, 3, 0.00,60.00,Sunday
135,46359235.70955593
3420,46359235.709555924
3738,6791184.0
2,8, 1, 8, 0, 4, 0.00,60.00,Sunday
135,46359235.70955593
3420,46359235.709555924
3738,6791184.0
2,8, 1, 8, 0, 5, 0.00,60.00,Sunday
135,46359235.70955593
3420,46359235.709555924
3738,6791184.0
2,8, 1, 8, 0, 6, 0.00,60.00,Sunday
135,46359235.70955593
3420,46359235.709555924
3738,6791184.0
2,8, 1, 8, 0, 7, 0.00,60.00,Sunday
135,66032185.73006148
3420,66032185.73006148
3738,6791184.0
2,8, 1, 8, 0, 8, 0.00,60.00,Sunday
135,53323580.330645084
3420,53323580.330645084
3738,6791184.0
2,8, 1, 8, 0, 9, 0.00,60.00,Sunday
135,46344166.24829911
3420,46344166.24829911
3738,6791184.0
2,8, 1, 8, 0,10, 0.00,60.00,Sunday
135,46288812.51597283
3420,46288812.51597283
3738,6791184.0
2,8, 1, 8, 0,11, 0.00,60.00,Sunday
135,47488009.758791044
3420,47488009.75879104
3738,6791184.0
2,8, 1, 8, 0,12, 0.00,60.00,Sunday
135,51512213.70849235
3420,51512213.70849235
3738,6791184.0
2,8, 1, 8, 0,13, 0.00,60.00,Sunday
135,53601108.88701112
3420,53601108.887011126
3738,6791184.0
2,8, 1, 8, 0,14, 0.00,60.00,Sunday
135,54352955.4805055
3420,54352955.48050551
3738,6791184.0
2,8, 1, 8, 0,15, 0.00,60.00,Sunday
135,53578879.18239941
3420,53578879.18239941
3738,6791184.0
2,8, 1, 8, 0,16, 0.00,60.00,Sunday
135,54163695.72159284
3420,54163695.72159286
3738,6791184.0
2,8, 1, 8, 0,17, 0.00,60.00,Sunday
135,49371975.328517206
3420,49371975.328517206
3738,6791184.0
2,8, 1, 8, 0,18, 0.00,60.00,Sunday
135,66276671.30593526
3420,66276671.30593526
3738,6791184.0
2,8, 1, 8, 0,19, 0.00,60.00,Sunday
135,57105773.81922845
3420,57105773.81922844
3738,6791184.0
2,8, 1, 8, 0,20, 0.00,60.00,Sunday
135,48904615.70955593
3420,48904615.70955593
3738,6791184.0
2,8, 1, 8, 0,21, 0.00,60.00,Sunday
135,48904615.70955593
3420,48904615.70955593
3738,6791184.0
2,8, 1, 8, 0,22, 0.00,60.00,Sunday
135,48904615.70955593
3420,48904615.70955593
3738,6791184.0
2,8, 1, 8, 0,23, 0.00,60.00,Sunday
135,48904615.70955593
3420,48904615.70955593
3738,6791184.0
2,8, 1, 8, 0,24, 0.00,60.00,Sunday
135,48904615.70955593
3420,48904615.70955593
3738,6791184.0
2,9, 1, 9, 0, 1, 0.00,60.00,Monday
135,57609860.1137362
3420,57609860.1137362
3738,6791184.0
2,9, 1, 9, 0, 2, 0.00,60.00,Monday
135,57609860.1137362
3420,57609860.1137362
3738,6791184.0
2,9, 1, 9, 0, 3, 0.00,60.00,Monday
135,57609860.1137362
3420,57609860.1137362
3738,6791184.0
2,9, 1, 9, 0, 4, 0.00,60.00,Monday
135,57609860.1137362
3420,57609860.1137362
3738,6791184.0
2,9, 1, 9, 0, 5, 0.00,60.00,Monday
135,57609860.1137362
3420,57609860.1137362
3738,6791184.0
2,9, 1, 9, 0, 6, 0.00,60.00,Monday
135,57609860.1137362
3420,57609860.1137362
3738,6791184.0
2,9, 1, 9, 0, 7, 0.00,60.00,Monday
135,129364387.50162292
3420,129364387.50162293
3738,6791184.0
2,9, 1, 9, 0, 8, 0.00,60.00,Monday
135,217344689.20257413
3420,217344689.20257413
3738,137867445.82799378
2,9, 1, 9, 0, 9, 0.00,60.00,Monday
135,314622765.04384154
3420,314622765.0438415
3738,84251240.9290244
2,9, 1, 9, 0,10, 0.00,60.00,Monday
135,274667749.964742
3420,274667749.964742
3738,59144634.28795586
2,9, 1, 9, 0,11, 0.00,60.00,Monday
135,270459536.2226513
3420,270459536.22265124
3738,22458114.35403836
2,9, 1, 9, 0,12, 0.00,60.00,Monday
135,288234195.72634447
3420,288234195.7263444
3738,20903860.04120622
2,9, 1, 9, 0,13, 0.00,60.00,Monday
135,290871369.1841923
3420,290871369.1841923
3738,31355574.477133654
2,9, 1, 9, 0,14, 0.00,60.00,Monday
135,306998110.28623396
3420,306998110.2862339
3738,26214925.67112396
2,9, 1, 9, 0,15, 0.00,60.00,Monday
135,300838949.33808595
3420,300838949.3380859
3738,20131557.972496595
2,9, 1, 9, 0,16, 0.00,60.00,Monday
135,309958800.463994
3420,309958800.46399397
3738,15659347.820881153
2,9, 1, 9, 0,17, 0.00,60.00,Monday
135,321367017.8863375
3420,321367017.88633746
3738,25336255.317251842
2,9, 1, 9, 0,18, 0.00,60.00,Monday
135,242292481.5897274
3420,242292481.5897274
3738,13199043.779243844
2,9, 1, 9, 0,19, 0.00,60.00,Monday
135,131839362.7990892
3420,131839362.7990892
3738,34313332.47191576
2,9, 1, 9, 0,20, 0.00,60.00,Monday
135,113642965.5318069
3420,113642965.5318069
3738,43835000.01596519
2,9, 1, 9, 0,21, 0.00,60.00,Monday
135,104055430.30841073
3420,104055430.30841073
3738,33654521.22178401
2,9, 1, 9, 0,22, 0.00,60.00,Monday
135,101021496.35655592
3420,101021496.35655595
3738,40374129.03585941
2,9, 1, 9, 0,23, 0.00,60.00,Monday
135,77772390.65670998
3420,77772390.65670998
3738,6791184.0
2,9, 1, 9, 0,24, 0.00,60.00,Monday
135,72442274.24247962
3420,72442274.24247962
3738,6791184.0
2,10, 1,10, 0, 1, 0.00,60.00,Tuesday
135,57996196.7332391
3420,57996196.7332391
3738,6791184.0
2,10, 1,10, 0, 2, 0.00,60.00,Tuesday
135,57609860.1137362
3420,57609860.1137362
3738,6791184.0
2,10, 1,10, 0, 3, 0.00,60.00,Tuesday
135,57609860.1137362
3420,57609860.1137362
3738,6791184.0
2,10, 1,10, 0, 4, 0.00,60.00,Tuesday
135,57609860.1137362
3420,57609860.1137362
3738,6791184.0
2,10, 1,10, 0, 5, 0.00,60.00,Tuesday
135,57609860.1137362
3420,57609860.1137362
3738,6791184.0
2,10, 1,10, 0, 6, 0.00,60.00,Tuesday
135,57609860.1137362
3420,57609860.1137362
3738,6791184.0
2,10, 1,10, 0, 7, 0.00,60.00,Tuesday
135,113078727.53286108
3420,113078727.53286108
3738,6791184.0
2,10, 1,10, 0, 8, 0.00,60.00,Tuesday
135,194924807.05107698
3420,194924807.05107695
3738,152402434.98957214
2,10, 1,10, 0, 9, 0.00,60.00,Tuesday
135,308490346.6821572
3420,308490346.68215716
3738,97723114.2617281
2,10, 1,10, 0,10, 0.00,60.00,Tuesday
135,269182833.64612806
3420,269182833.64612794
3738,76610349.6470937
2,10, 1,10, 0,11, 0.00,60.00,Tuesday
135,261613503.3745975
3420,261613503.3745975
3738,66357899.07730986
2,10, 1,10, 0,12, 0.00,60.00,Tuesday
135,271414027.72874737
3420,271414027.72874737
3738,77198493.55299887
2,10, 1,10, 0,13, 0.00,60.00,Tuesday
135,291044309.9955963
3420,291044309.99559623
3738,58520571.58229523
2,10, 1,10, 0,14, 0.00,60.00,Tuesday
135,287475070.7949592
3420,287475070.7949591
3738,36788654.99554978
2,10, 1,10, 0,15, 0.00,60.00,Tuesday
135,279634243.1367728
3420,279634243.13677275
3738,16051138.943176191
2,10, 1,10, 0,16, 0.00,60.00,Tuesday
135,281900606.44981235
3420,281900606.4498123
3738,17473156.768638454
2,10, 1,10, 0,17, 0.00,60.00,Tuesday
135,293754415.19884056
3420,293754415.1988405
3738,23441059.735532463
2,10, 1,10, 0,18, 0.00,60.00,Tuesday
135,250464149.20683092
3420,250464149.20683092
3738,40550747.10659605
2,10, 1,10, 0,19, 0.00,60.00,Tuesday
135,131075981.74252641
3420,131075981.74252641
3738,81554490.74527085
2,10, 1,10, 0,20, 0.00,60.00,Tuesday
135,113943202.62142342
3420,113943202.62142342
3738,85445111.53803772
2,10, 1,10, 0,21, 0.00,60.00,Tuesday
135,104845303.34694177
3420,104845303.3469418
3738,94897766.67100297
2,10, 1,10, 0,22, 0.00,60.00,Tuesday
135,103868616.11424902
3420,103868616.11424905
3738,107570694.60456687
2,10, 1,10, 0,23, 0.00,60.00,Tuesday
135,77772390.65670998
3420,77772390.65670998
3738,6791184.0
2,10, 1,10, 0,24, 0.00,60.00,Tuesday
135,72442274.24247962
3420,72442274.24247962
3738,6791184.0
2,11, 1,11, 0, 1, 0.00,60.00,Wednesday
135,57996196.7332391
3420,57996196.7332391
3738,6791184.0
2,11, 1,11, 0, 2, 0.00,60.00,Wednesday
135,57609860.1137362
3420,57609860.1137362
3738,6791184.0
2,11, 1,11, 0, 3, 0.00,60.00,Wednesday
135,57609860.1137362
3420,57609860.1137362
3738,6791184.0
2,11, 1,11, 0, 4, 0.00,60.00,Wednesday
135,57609860.1137362
3420,57609860.1137362
3738,6791184.0
2,11, 1,11, 0, 5, 0.00,60.00,Wednesday
135,57609860.1137362
3420,57609860.1137362
3738,6791184.0
2,11, 1,11, 0, 6, 0.00,60.00,Wednesday
135,57609860.1137362
3420,57609860.1137362
3738,6791184.0
2,11, 1,11, 0, 7, 0.00,60.00,Wednesday
135,108991374.06741878
3420,108991374.06741878
3738,6791184.0
2,11, 1,11, 0, 8, 0.00,60.00,Wednesday
135,189911017.96916753
3420,189911017.96916753
3738,94818214.29573308
2,11, 1,11, 0, 9, 0.00,60.00,Wednesday
135,304669166.3074405
3420,304669166.3074405
3738,64661876.48103598
2,11, 1,11, 0,10, 0.00,60.00,Wednesday
135,267361226.4483806
3420,267361226.4483806
3738,50882680.8266758
2,11, 1,11, 0,11, 0.00,60.00,Wednesday
135,261313082.20577067
3420,261313082.2057706
3738,22830918.075243976
2,11, 1,11, 0,12, 0.00,60.00,Wednesday
135,270030544.55135155
3420,270030544.5513515
3738,31366313.98402039
2,11, 1,11, 0,13, 0.00,60.00,Wednesday
135,276127390.75712407
3420,276127390.75712407
3738,45189712.92586335
2,11, 1,11, 0,14, 0.00,60.00,Wednesday
135,273817164.3290547
3420,273817164.3290547
3738,33031836.047093764
2,11, 1,11, 0,15, 0.00,60.00,Wednesday
135,259752657.63426536
3420,259752657.6342653
3738,24088241.208035447
2,11, 1,11, 0,16, 0.00,60.00,Wednesday
135,260069707.3934997
3420,260069707.39349967
3738,31199689.32602434
2,11, 1,11, 0,17, 0.00,60.00,Wednesday
135,277222008.56878424
3420,277222008.56878424
3738,59555925.77637831
2,11, 1,11, 0,18, 0.00,60.00,Wednesday
135,242060693.3034919
3420,242060693.3034919
3738,63083759.532647654
2,11, 1,11, 0,19, 0.00,60.00,Wednesday
135,131878940.0422082
3420,131878940.0422082
3738,92873576.01351662
2,11, 1,11, 0,20, 0.00,60.00,Wednesday
135,114288990.66517167
3420,114288990.66517167
3738,101811399.08752362
2,11, 1,11, 0,21, 0.00,60.00,Wednesday
135,105794688.85940059
3420,105794688.85940063
3738,101316367.28287944
2,11, 1,11, 0,22, 0.00,60.00,Wednesday
135,104081748.82879049
3420,104081748.82879049
3738,111807653.72729288
2,11, 1,11, 0,23, 0.00,60.00,Wednesday
135,77772390.65670998
3420,77772390.65670998
3738,6791184.0
2,11, 1,11, 0,24, 0.00,60.00,Wednesday
135,72442274.24247962
3420,72442274.24247962
3738,6791184.0
2,12, 1,12, 0, 1, 0.00,60.00,Thursday
135,57996196.7332391
3420,57996196.7332391
3738,6791184.0
2,12, 1,12, 0, 2, 0.00,60.00,Thursday
135,57609860.1137362
3420,57609860.1137362
3738,6791184.0
2,12, 1,12, 0, 3, 0.00,60.00,Thursday
135,57609860.1137362
3420,57609860.1137362
3738,6791184.0
2,12, 1,12, 0, 4, 0.00,60.00,Thursday
135,57609860.1137362
3420,57609860.1137362
3738,6791184.0
2,12, 1,12, 0, 5, 0.00,60.00,Thursday
135,57609860.1137362
3420,57609860.1137362
3738,6791184.0
2,12, 1,12, 0, 6, 0.00,60.00,Thursday
135,57609860.1137362
3420,57609860.1137362
3738,6791184.0
2,12, 1,12, 0, 7, 0.00,60.00,Thursday
135,113101707.01676029
3420,113101707.01676029
3738,6791184.0
2,12, 1,12, 0, 8, 0.00,60.00,Thursday
135,195625727.74803194
3420,195625727.74803194
3738,142747729.47265917
2,12, 1,12, 0, 9, 0.00,60.00,Thursday
135,311313235.49125487
3420,311313235.4912549
3738,92653512.10647297
2,12, 1,12, 0,10, 0.00,60.00,Thursday
135,268491066.91916317
3420,268491066.91916317
3738,79864010.10416175
2,12, 1,12, 0,11, 0.00,60.00,Thursday
135,261819300.14239022
3420,261819300.14239016
3738,63740577.68819953
2,12, 1,12, 0,12, 0.00,60.00,Thursday
135,273922530.8180008
3420,273922530.8180008
3738,58277381.30926616
2,12, 1,12, 0,13, 0.00,60.00,Thursday
135,293320253.94093573
3420,293320253.94093573
3738,50440032.48203044
2,12, 1,12, 0,14, 0.00,60.00,Thursday
135,284663801.5194899
3420,284663801.5194899
3738,46650074.76838304
2,12, 1,12, 0,15, 0.00,60.00,Thursday
135,269261571.72904223
3420,269261571.7290422
3738,27106797.248070415
2,12, 1,12, 0,16, 0.00,60.00,Thursday
135,269075126.8849531
3420,269075126.8849531
3738,35263925.03965299
2,12, 1,12, 0,17, 0.00,60.00,Thursday
135,287680392.99092954
3420,287680392.99092954
3738,42357742.66692753
2,12, 1,12, 0,18, 0.00,60.00,Thursday
135,249611423.40717185
3420,249611423.40717185
3738,56325477.78142205
2,12, 1,12, 0,19, 0.00,60.00,Thursday
135,133994325.80915126
3420,133994325.80915122
3738,84409492.00835957
2,12, 1,12, 0,20, 0.00,60.00,Thursday
135,114029405.99068993
3420,114029405.99068993
3738,81636791.79128024
2,12, 1,12, 0,21, 0.00,60.00,Thursday
135,105545397.11719468
3420,105545397.11719471
3738,85251684.0480099
2,12, 1,12, 0,22, 0.00,60.00,Thursday
135,102896797.8725875
3420,102896797.8725875
3738,87576137.45097275
2,12, 1,12, 0,23, 0.00,60.00,Thursday
135,77772390.65670998
3420,77772390.65670998
3738,6791184.0
2,12, 1,12, 0,24, 0.00,60.00,Thursday
135,72442274.24247962
3420,72442274.24247962
3738,6791184.0
2,13, 1,13, 0, 1, 0.00,60.00,Friday
135,57996196.7332391
3420,57996196.7332391
3738,6791184.0
2,13, 1,13, 0, 2, 0.00,60.00,Friday