Program Version,EnergyPlus, Version 9.6.0-f420c06a69, YMD=2022.07.06 16:33
1,5,Environment Title[],Latitude[deg],Longitude[deg],Time Zone[],Elevation[m]
2,8,Day of Simulation[],Month[],Day of Month[],DST Indicator[1=yes 0=no],Hour[],StartMinute[],EndMinute[],DayType
3,5,Cumulative Day of Simulation[],Month[],Day of Month[],DST Indicator[1=yes 0=no],DayType  ! When Daily Meters Requested
4,2,Cumulative Days of Simulation[],Month[]  ! When Monthly Meters Requested
5,1,Cumulative Days of Simulation[] ! When Run Period Meters Requested
6,1,Calendar Year of Simulation[] ! When Annual Meters Requested
135,1,Electricity:Facility [J] !Hourly
3420,1,ElectricityNet:Facility [J] !Hourly
3738,1,NaturalGas:Facility [J] !Hourly
End of Data Dictionary
1,RUNPERIOD 1,  35.04,-106.62,  -7.00,1619.00
2,1, 1, 1, 0, 1, 0.00,60.00,Holiday
135,46359074.93593144
3420,46359074.93593143
3738,6791184.0
2,1, 1, 1, 0, 2, 0.00,60.00,Holiday
135,46359235.70955593
3420,46359235.709555924
3738,6791184.0
2,1, 1, 1, 0, 3, 0.00,60.00,Holiday
135,46359235.70955593
3420,46359235.709555924
3738,6791184.0
2,1, 1, 1, 0, 4, 0.00,60.00,Holiday
135,46359235.70955593
3420,46359235.709555924
3738,6791184.0
2,1, 1, 1, 0, 5, 0.00,60.00,Holiday
135,46359235.70955593
3420,46359235.709555924
3738,6791184.0
2,1, 1, 1, 0, 6, 0.00,60.00,Holiday
135,46359235.70955593
3420,46359235.709555924
3738,6791184.0
2,1, 1, 1, 0, 7, 0.00,60.00,Holiday
135,66032185.73006148
3420,66032185.73006148
3738,6791184.0
2,1, 1, 1, 0, 8, 0.00,60.00,Holiday
135,50074623.774579875
3420,50074623.774579875
3738,6791184.0
2,1, 1, 1, 0, 9, 0.00,60.00,Holiday
135,46351708.9331394
3420,46351708.9331394
3738,6791184.0
2,1, 1, 1, 0,10, 0.00,60.00,Holiday
135,46288813.17904917
3420,46288813.179049164
3738,6791184.0
2,1, 1, 1, 0,11, 0.00,60.00,Holiday
135,50556028.58634514
3420,50556028.58634514
3738,6791184.0
2,1, 1, 1, 0,12, 0.00,60.00,Holiday
135,53620061.07971074
3420,53620061.07971075
3738,6791184.0
2,1, 1, 1, 0,13, 0.00,60.00,Holiday
135,54251377.4482968
3420,54251377.44829681
3738,6791184.0
2,1, 1, 1, 0,14, 0.00,60.00,Holiday
135,58744815.664830714
3420,58744815.66483073
3738,6791184.0
2,1, 1, 1, 0,15, 0.00,60.00,Holiday
135,64652365.25448359
3420,64652365.25448359
3738,6791184.0
2,1, 1, 1, 0,16, 0.00,60.00,Holiday
135,62671968.53224909
3420,62671968.53224909
3738,6791184.0
2,1, 1, 1, 0,17, 0.00,60.00,Holiday
135,54610940.42094375
3420,54610940.42094375
3738,6791184.0
2,1, 1, 1, 0,18, 0.00,60.00,Holiday
135,66905826.86107348
3420,66905826.86107348
3738,6791184.0
2,1, 1, 1, 0,19, 0.00,60.00,Holiday
135,57105773.81922845
3420,57105773.81922844
3738,6791184.0
2,1, 1, 1, 0,20, 0.00,60.00,Holiday
135,48904615.70955593
3420,48904615.70955593
3738,6791184.0
2,1, 1, 1, 0,21, 0.00,60.00,Holiday
135,48904615.70955593
3420,48904615.70955593
3738,6791184.0
2,1, 1, 1, 0,22, 0.00,60.00,Holiday
135,48904615.70955593
3420,48904615.70955593
3738,6791184.0
2,1, 1, 1, 0,23, 0.00,60.00,Holiday
135,48904615.70955593
3420,48904615.70955593
3738,6791184.0
2,1, 1, 1, 0,24, 0.00,60.00,Holiday
135,48904615.70955593
3420,48904615.70955593
3738,6791184.0
2,2, 1, 2, 0, 1, 0.00,60.00,Monday
135,57609860.1137362
3420,57609860.1137362
3738,6791184.0
2,2, 1, 2, 0, 2, 0.00,60.00,Monday
135,57609860.1137362
3420,57609860.1137362
3738,6791184.0
2,2, 1, 2, 0, 3, 0.00,60.00,Monday
135,57609860.1137362
3420,57609860.1137362
3738,6791184.0
2,2, 1, 2, 0, 4, 0.00,60.00,Monday
135,57609860.1137362
3420,57609860.1137362
3738,6791184.0
2,2, 1, 2, 0, 5, 0.00,60.00,Monday
135,57609860.1137362
3420,57609860.1137362
3738,6791184.0
2,2, 1, 2, 0, 6, 0.00,60.00,Monday
135,57609860.1137362
3420,57609860.1137362
3738,6791184.0
2,2, 1, 2, 0, 7, 0.00,60.00,Monday
135,134878218.9732619
3420,134878218.97326186
3738,6791184.0
2,2, 1, 2, 0, 8, 0.00,60.00,Monday
135,224447349.34681612
3420,224447349.34681612
3738,144051788.3317502
2,2, 1, 2, 0, 9, 0.00,60.00,Monday
135,310113173.5226268
3420,310113173.52262676
3738,88876839.65152809
2,2, 1, 2, 0,10, 0.00,60.00,Monday
135,271365063.6523837
3420,271365063.6523836
3738,60265923.85270449
2,2, 1, 2, 0,11, 0.00,60.00,Monday
135,268042805.41555253
3420,268042805.41555253
3738,22324186.92765486
2,2, 1, 2, 0,12, 0.00,60.00,Monday
135,288256589.4717232
3420,288256589.4717232
3738,20876794.54329522
2,2, 1, 2, 0,13, 0.00,60.00,Monday
135,289626908.83261126
3420,289626908.83261126
3738,31334423.78333511
2,2, 1, 2, 0,14, 0.00,60.00,Monday
135,304560312.7598077
3420,304560312.75980777
3738,26165958.14784857
2,2, 1, 2, 0,15, 0.00,60.00,Monday
135,297207055.59561163
3420,297207055.5956117
3738,16649506.089210246
2,2, 1, 2, 0,16, 0.00,60.00,Monday
135,301765850.1485542
3420,301765850.1485542
3738,19089949.697671723
2,2, 1, 2, 0,17, 0.00,60.00,Monday
135,300883689.7626623
3420,300883689.7626623
3738,20696611.81849547
2,2, 1, 2, 0,18, 0.00,60.00,Monday
135,237763786.45298475
3420,237763786.45298478
3738,22828722.127478585
2,2, 1, 2, 0,19, 0.00,60.00,Monday
135,131185250.1779861
3420,131185250.1779861
3738,54000351.72755138
2,2, 1, 2, 0,20, 0.00,60.00,Monday
135,115788227.31176195
3420,115788227.31176195
3738,68630236.21559957
2,2, 1, 2, 0,21, 0.00,60.00,Monday
135,107180701.07736793
3420,107180701.07736793
3738,80740475.22169581
2,2, 1, 2, 0,22, 0.00,60.00,Monday
135,104935694.04120313
3420,104935694.04120316
3738,82360406.46165311
2,2, 1, 2, 0,23, 0.00,60.00,Monday
135,77772390.65670998
3420,77772390.65670998
3738,6791184.0
2,2, 1, 2, 0,24, 0.00,60.00,Monday
135,72442274.24247962
3420,72442274.24247962
3738,6791184.0
2,3, 1, 3, 0, 1, 0.00,60.00,Tuesday
135,57996196.7332391
3420,57996196.7332391
3738,6791184.0
2,3, 1, 3, 0, 2, 0.00,60.00,Tuesday
135,57609860.1137362
3420,57609860.1137362
3738,6791184.0
2,3, 1, 3, 0, 3, 0.00,60.00,Tuesday
135,57609860.1137362
3420,57609860.1137362
3738,6791184.0
2,3, 1, 3, 0, 4, 0.00,60.00,Tuesday
135,57609860.1137362
3420,57609860.1137362
3738,6791184.0
2,3, 1, 3, 0, 5, 0.00,60.00,Tuesday
135,57609860.1137362
3420,57609860.1137362
3738,6791184.0
2,3, 1, 3, 0, 6, 0.00,60.00,Tuesday
135,57609860.1137362
3420,57609860.1137362
3738,6791184.0
2,3, 1, 3, 0, 7, 0.00,60.00,Tuesday
135,110246891.9321736
3420,110246891.9321736
3738,6791184.0
2,3, 1, 3, 0, 8, 0.00,60.00,Tuesday
135,189787777.19002396
3420,189787777.19002393
3738,127893569.43827754
2,3, 1, 3, 0, 9, 0.00,60.00,Tuesday
135,311735474.6462774
3420,311735474.64627737
3738,74048611.90492582
2,3, 1, 3, 0,10, 0.00,60.00,Tuesday
135,277285498.1859546
3420,277285498.1859546
3738,33473696.454957783
2,3, 1, 3, 0,11, 0.00,60.00,Tuesday
135,276669119.4453627
3420,276669119.44536257
3738,11005409.7709702
2,3, 1, 3, 0,12, 0.00,60.00,Tuesday
135,294510040.65947235
3420,294510040.65947235
3738,23274910.85150368
2,3, 1, 3, 0,13, 0.00,60.00,Tuesday
135,296008760.87337774
3420,296008760.87337774
3738,31313196.53816751
2,3, 1, 3, 0,14, 0.00,60.00,Tuesday
135,311144935.96683
3420,311144935.96682996
3738,26179341.63714762
2,3, 1, 3, 0,15, 0.00,60.00,Tuesday
135,295626809.39661074
3420,295626809.39661074
3738,20134709.88426249
2,3, 1, 3, 0,16, 0.00,60.00,Tuesday
135,295608553.78094894
3420,295608553.78094894
3738,15642458.566236496
2,3, 1, 3, 0,17, 0.00,60.00,Tuesday
135,304296841.80969644
3420,304296841.8096964
3738,20958318.927303832
2,3, 1, 3, 0,18, 0.00,60.00,Tuesday
135,243410022.09525812
3420,243410022.09525806
3738,30167236.296865433
2,3, 1, 3, 0,19, 0.00,60.00,Tuesday
135,130869915.00617105
3420,130869915.00617105
3738,67740176.86119984
2,3, 1, 3, 0,20, 0.00,60.00,Tuesday
135,113649543.56531256
3420,113649543.56531256
3738,95175467.94620602
2,3, 1, 3, 0,21, 0.00,60.00,Tuesday
135,104114513.6977945
3420,104114513.6977945
3738,110266109.84096873
2,3, 1, 3, 0,22, 0.00,60.00,Tuesday
135,103025064.69776687
3420,103025064.6977669
3738,144061931.8735422
2,3, 1, 3, 0,23, 0.00,60.00,Tuesday
135,77772390.65670998
3420,77772390.65670998
3738,6791184.0
2,3, 1, 3, 0,24, 0.00,60.00,Tuesday
135,72442274.24247962
3420,72442274.24247962
3738,6791184.0
2,4, 1, 4, 0, 1, 0.00,60.00,Wednesday
135,57996196.7332391
3420,57996196.7332391
3738,6791184.0
2,4, 1, 4, 0, 2, 0.00,60.00,Wednesday
135,57609860.1137362
3420,57609860.1137362
3738,6791184.0
2,4, 1, 4, 0, 3, 0.00,60.00,Wednesday
135,57609860.1137362
3420,57609860.1137362
3738,6791184.0
2,4, 1, 4, 0, 4, 0.00,60.00,Wednesday
135,57609860.1137362
3420,57609860.1137362
3738,6791184.0
2,4, 1, 4, 0, 5, 0.00,60.00,Wednesday
135,57609860.1137362
3420,57609860.1137362
3738,6791184.0
2,4, 1, 4, 0, 6, 0.00,60.00,Wednesday
135,57609860.1137362
3420,57609860.1137362
3738,6791184.0
2,4, 1, 4, 0, 7, 0.00,60.00,Wednesday
135,119627129.44181436
3420,119627129.44181436
3738,6791184.0
2,4, 1, 4, 0, 8, 0.00,60.00,Wednesday
135,208944517.32089108
3420,208944517.32089105
3738,185331336.0517994
2,4, 1, 4, 0, 9, 0.00,60.00,Wednesday
135,314603899.040325
3420,314603899.040325
3738,108328465.0278796
2,4, 1, 4, 0,10, 0.00,60.00,Wednesday
135,269788068.39721024
3420,269788068.39721024
3738,73579334.36464164
2,4, 1, 4, 0,11, 0.00,60.00,Wednesday
135,263171439.24956778
3420,263171439.24956778
3738,50494466.34704415
2,4, 1, 4, 0,12, 0.00,60.00,Wednesday
135,277138250.5316129
3420,277138250.5316129
3738,30735368.147878595
2,4, 1, 4, 0,13, 0.00,60.00,Wednesday
135,283975102.06385964
3420,283975102.06385964
3738,31354817.820660237
2,4, 1, 4, 0,14, 0.00,60.00,Wednesday
135,289034825.40189177
3420,289034825.4018918
3738,26192223.011197664
2,4, 1, 4, 0,15, 0.00,60.00,Wednesday
135,274346368.1438432
3420,274346368.1438431
3738,20162190.97573757
2,4, 1, 4, 0,16, 0.00,60.00,Wednesday
135,273899513.1081306
3420,273899513.1081305
3738,15652469.924847217
2,4, 1, 4, 0,17, 0.00,60.00,Wednesday
135,293815130.2502884
3420,293815130.2502884
3738,25318700.14583455
2,4, 1, 4, 0,18, 0.00,60.00,Wednesday
135,251626379.24783218
3420,251626379.24783218
3738,25553313.819719423
2,4, 1, 4, 0,19, 0.00,60.00,Wednesday
135,131046037.1597549
3420,131046037.1597549
3738,49939864.53120277
2,4, 1, 4, 0,20, 0.00,60.00,Wednesday
135,113569604.38930234
3420,113569604.38930234
3738,68915962.18262397
2,4, 1, 4, 0,21, 0.00,60.00,Wednesday
135,104017115.51145667
3420,104017115.51145668
3738,86012162.95073286
2,4, 1, 4, 0,22, 0.00,60.00,Wednesday
135,102570259.072965
3420,102570259.072965
3738,100335180.66736834
2,4, 1, 4, 0,23, 0.00,60.00,Wednesday
135,77772390.65670998
3420,77772390.65670998
3738,6791184.0
2,4, 1, 4, 0,24, 0.00,60.00,Wednesday
135,72442274.24247962
3420,72442274.24247962
3738,6791184.0
2,5, 1, 5, 0, 1, 0.00,60.00,Thursday
135,57996196.7332391
3420,57996196.7332391
3738,6791184.0
2,5, 1, 5, 0, 2, 0.00,60.00,Thursday
135,57609860.1137362
3420,57609860.1137362
3738,6791184.0
2,5, 1, 5, 0, 3, 0.00,60.00,Thursday
135,57609860.1137362
3420,57609860.1137362
3738,6791184.0
2,5, 1, 5, 0, 4, 0.00,60.00,Thursday
135,57609860.1137362
3420,57609860.1137362
3738,6791184.0
2,5, 1, 5, 0, 5, 0.00,60.00,Thursday
135,57609860.1137362
3420,57609860.1137362
3738,6791184.0
2,5, 1, 5, 0, 6, 0.00,60.00,Thursday
135,57609860.1137362
3420,57609860.1137362
3738,6791184.0
2,5, 1, 5, 0, 7, 0.00,60.00,Thursday
135,108295269.9976696
3420,108295269.99766962
3738,6791184.0
2,5, 1, 5, 0, 8, 0.00,60.00,Thursday
135,189407351.3350784
3420,189407351.3350784
3738,136235439.4008737
2,5, 1, 5, 0, 9, 0.00,60.00,Thursday
135,310855635.5625767
3420,310855635.5625767
3738,71943658.78121287
2,5, 1, 5, 0,10, 0.00,60.00,Thursday
135,276586213.8371459
3420,276586213.8371459
3738,24846616.9431958
2,5, 1, 5, 0,11, 0.00,60.00,Thursday
135,275739951.9265819
3420,275739951.9265819
3738,11332593.082549457
2,5, 1, 5, 0,12, 0.00,60.00,Thursday
135,288659364.54976475
3420,288659364.5497647
3738,20890931.467354983
2,5, 1, 5, 0,13, 0.00,60.00,Thursday
135,290684670.8421191
3420,290684670.84211904
3738,31320742.389468748
2,5, 1, 5, 0,14, 0.00,60.00,Thursday
135,311662504.3467413
3420,311662504.3467413
3738,26188860.01426565
2,5, 1, 5, 0,15, 0.00,60.00,Thursday
135,304687602.951477
3420,304687602.95147693
3738,20203134.755564053
2,5, 1, 5, 0,16, 0.00,60.00,Thursday
135,308288665.685231
3420,308288665.6852309
3738,15641043.467930902
2,5, 1, 5, 0,17, 0.00,60.00,Thursday
135,311873670.6438858
3420,311873670.64388573
3738,25322162.75803631
2,5, 1, 5, 0,18, 0.00,60.00,Thursday
135,244186061.42921048
3420,244186061.42921048
3738,11107815.114222778
2,5, 1, 5, 0,19, 0.00,60.00,Thursday
135,132382851.03275767
3420,132382851.03275768
3738,16875708.73886697
2,5, 1, 5, 0,20, 0.00,60.00,Thursday
135,113569604.38930234
3420,113569604.38930234
3738,35615221.141312286
2,5, 1, 5, 0,21, 0.00,60.00,Thursday
135,102910895.06207252
3420,102910895.06207252
3738,47971808.51395345
2,5, 1, 5, 0,22, 0.00,60.00,Thursday
135,98563304.92700464
3420,98563304.92700467
3738,65270636.2372894
2,5, 1, 5, 0,23, 0.00,60.00,Thursday
135,77772390.65670998
3420,77772390.65670998
3738,6791184.0
2,5, 1, 5, 0,24, 0.00,60.00,Thursday
135,72442274.24247962
3420,72442274.24247962
3738,6791184.0
2,6, 1, 6, 0, 1, 0.00,60.00,Friday
135,57996196.7332391
3420,57996196.7332391
3738,6791184.0
2,6, 1, 6, 0, 2, 0.00,60.00,Friday
135,57609860.1137362
3420,57609860.1137362
3738,6791184.0
2,6, 1, 6, 0, 3, 0.00,60.00,Friday
135,57609860.1137362
3420,57609860.1137362
3738,6791184.0
2,6, 1, 6, 0, 4, 0.00,60.00,Friday
135,57609860.1137362
3420,57609860.1137362
3738,6791184.0
2,6, 1, 6, 0, 5, 0.00,60.00,Friday
135,57609860.1137362
3420,57609860.1137362
3738,6791184.0
2,6, 1, 6, 0, 6, 0.00,60.00,Friday
135,57609860.1137362
3420,57609860.1137362
3738,6791184.0
2,6, 1, 6, 0, 7, 0.00,60.00,Friday
135,105619819.90308401
3420,105619819.90308402
3738,6791184.0
2,6, 1, 6, 0, 8, 0.00,60.00,Friday
135,193043139.3405267
3420,193043139.34052673
3738,126547152.9882029
2,6, 1, 6, 0, 9, 0.00,60.00,Friday
135,313880235.9859874
3420,313880235.9859874
3738,87400731.47436205
2,6, 1, 6, 0,10, 0.00,60.00,Friday
135,269685263.3883865
3420,269685263.3883865
3738,79949976.86130545
2,6, 1, 6, 0,11, 0.00,60.00,Friday
135,261729606.0356472
3420,261729606.03564715
3738,65234165.48569073
2,6, 1, 6, 0,12, 0.00,60.00,Friday
135,278856404.79486585
3420,278856404.7948658
3738,49205256.628589064
2,6, 1, 6, 0,13, 0.00,60.00,Friday
135,288470609.4079028
3420,288470609.4079028
3738,27747821.976996683
2,6, 1, 6, 0,14, 0.00,60.00,Friday
135,301990962.9050817
3420,301990962.9050817
3738,29972828.775570754
2,6, 1, 6, 0,15, 0.00,60.00,Friday
135,287667776.21800876
3420,287667776.2180087
3738,15682450.609958835
2,6, 1, 6, 0,16, 0.00,60.00,Friday
135,290301029.0711669
3420,290301029.07116675
3738,20084589.10396881
2,6, 1, 6, 0,17, 0.00,60.00,Friday
135,301035538.4551065
3420,301035538.4551065
3738,20998071.46919233
2,6, 1, 6, 0,18, 0.00,60.00,Friday
135,250496220.77026373
3420,250496220.77026367
3738,55004046.201091826
2,6, 1, 6, 0,19, 0.00,60.00,Friday
135,131451504.37233484
3420,131451504.37233481
3738,77879657.79961413
2,6, 1, 6, 0,20, 0.00,60.00,Friday
135,113732739.25814766
3420,113732739.25814766
3738,82807981.85826471
2,6, 1, 6, 0,21, 0.00,60.00,Friday
135,105210615.04327577
3420,105210615.04327579
3738,100039334.88331619
2,6, 1, 6, 0,22, 0.00,60.00,Friday
135,102165750.45736347
3420,102165750.45736349
3738,98752417.31681237
2,6, 1, 6, 0,23, 0.00,60.00,Friday
135,77772390.65670998
3420,77772390.65670998
3738,6791184.0
2,6, 1, 6, 0,24, 0.00,60.00,Friday
135,72442274.24247962
3420,72442274.24247962
3738,6791184.0
2,7, 1, 7, 0, 1, 0.00,60.00,Saturday
135,46745513.81922844
3420,46745513.81922843
3738,6791184.0
2,7, 1, 7, 0, 2, 0.00,60.00,Saturday
135,46359235.70955593
3420,46359235.709555924
3738,6791184.0
2,7, 1, 7, 0, 3, 0.00,60.00,Saturday
135,46359235.70955593
3420,46359235.709555924
3738,6791184.0
2,7, 1, 7, 0, 4, 0.00,60.00,Saturday
135,46359235.70955593
3420,46359235.709555924
3738,6791184.0
2,7, 1, 7, 0, 5, 0.00,60.00,Saturday
135,46359235.70955593
3420,46359235.709555924
3738,6791184.0
2,7, 1, 7, 0, 6, 0.00,60.00,Saturday
135,46359235.70955593
3420,46359235.709555924
3738,6791184.0
2,7, 1, 7, 0, 7, 0.00,60.00,Saturday
135,114125473.99483296
3420,114125473.99483293
3738,6791184.0
2,7, 1, 7, 0, 8, 0.00,60.00,Saturday
135,145386642.20992297
3420,145386642.2099229
3738,133195473.13036323
2,7, 1, 7, 0, 9, 0.00,60.00,Saturday
135,135840885.57268566
3420,135840885.57268566
3738,116267863.24089772
2,7, 1, 7, 0,10, 0.00,60.00,Saturday
135,136595675.47078744
3420,136595675.4707874
3738,103043411.84577969
2,7, 1, 7, 0,11, 0.00,60.00,Saturday
135,128934916.71132854
3420,128934916.71132854
3738,75477831.7567555
2,7, 1, 7, 0,12, 0.00,60.00,Saturday
135,137724658.957258
3420,137724658.957258
3738,34737402.66816644
2,7, 1, 7, 0,13, 0.00,60.00,Saturday
135,96967747.5372499
3420,96967747.5372499
3738,22526179.889498115
2,7, 1, 7, 0,14, 0.00,60.00,Saturday
135,86585482.29067086
3420,86585482.29067087
3738,23423950.580807753
2,7, 1, 7, 0,15, 0.00,60.00,Saturday
135,80777988.06353001
3420,80777988.06353001
3738,21064565.793054357
2,7, 1, 7, 0,16, 0.00,60.00,Saturday
135,76357604.08041385
3420,76357604.08041385
3738,29665912.668737337
2,7, 1, 7, 0,17, 0.00,60.00,Saturday
135,79519535.96639876
3420,79519535.96639878
3738,38658812.27102659
2,7, 1, 7, 0,18, 0.00,60.00,Saturday
135,83077160.33306564
3420,83077160.33306564
3738,52151824.44909318
2,7, 1, 7, 0,19, 0.00,60.00,Saturday
135,66276703.53612528
3420,66276703.53612528
3738,6791184.0
2,7, 1, 7, 0,20, 0.00,60.00,Saturday
135,49290893.81922844
3420,49290893.81922844
3738,6791184.0
2,7, 1, 7, 0,21, 0.00,60.00,Saturday
135,48904615.70955593
3420,48904615.70955593
3738,6791184.0
2,7, 1, 7, 0,22, 0.00,60.00,Saturday
135,48904615.70955593
3420,48904615.70955593
3738,6791184.0
2,7, 1, 7, 0,23, 0.00,60.00,Saturday
135,48904615.70955593
3420,48904615.70955593
3738,6791184.0
2,7, 1, 7, 0,24, 0.00,60.00,Saturday
135,48904615.70955593
3420,48904615.70955593
3738,6791184.0
2,8, 1, 8, 0, 1, 0.00,60.00,Sunday
135,46359235.70955593
3420,46359235.709555924
3738,6791184.0
2,8, 1, 8, 0, 2, 0.00,60.00,Sunday
135,46359235.70955593
3420,46359235.709555924
3738,6791184.0
2,8, 1, 8, 0, 3, 0.00,60.00,Sunday
135,46359235.70955593
3420,46359235.709555924
3738,6791184.0
2,8, 1, 8, 0, 4, 0.00,60.00,Sunday
135,46359235.70955593
3420,46359235.709555924
3738,6791184.0
2,8, 1, 8, 0, 5, 0.00,60.00,Sunday
135,46359235.70955593
3420,46359235.709555924
3738,6791184.0
2,8, 1, 8, 0, 6, 0.00,60.00,Sunday
135,46359235.70955593
3420,46359235.709555924
3738,6791184.0
2,8, 1, 8, 0, 7, 0.00,60.00,Sunday
135,66032185.73006148
3420,66032185.73006148
3738,6791184.0
2,8, 1, 8, 0, 8, 0.00,60.00,Sunday
135,53323580.330645084
3420,53323580.330645084
3738,6791184.0
2,8, 1, 8, 0, 9, 0.00,60.00,Sunday
135,46344166.24829911
3420,46344166.24829911
3738,6791184.0
2,8, 1, 8, 0,10, 0.00,60.00,Sunday
135,46288812.51597283
3420,46288812.51597283
3738,6791184.0
2,8, 1, 8, 0,11, 0.00,60.00,Sunday
135,47248304.35838665
3420,47248304.35838665
3738,6791184.0
2,8, 1, 8, 0,12, 0.00,60.00,Sunday
135,50816285.652132764
3420,50816285.652132764
3738,6791184.0
2,8, 1, 8, 0,13, 0.00,60.00,Sunday
135,54254304.64838694
3420,54254304.648386955
3738,6791184.0
2,8, 1, 8, 0,14, 0.00,60.00,Sunday
135,53672460.56946257
3420,53672460.56946257
3738,6791184.0
2,8, 1, 8, 0,15, 0.00,60.00,Sunday
135,54203090.409237586
3420,54203090.409237586
3738,6791184.0
2,8, 1, 8, 0,16, 0.00,60.00,Sunday
135,53466165.01567902
3420,53466165.015679024
3738,6791184.0
2,8, 1, 8, 0,17, 0.00,60.00,Sunday
135,50395498.74889913
3420,50395498.74889913
3738,6791184.0
2,8, 1, 8, 0,18, 0.00,60.00,Sunday
135,66276671.30593526
3420,66276671.30593526
3738,6791184.0
2,8, 1, 8, 0,19, 0.00,60.00,Sunday
135,57105773.81922845
3420,57105773.81922844
3738,6791184.0
2,8, 1, 8, 0,20, 0.00,60.00,Sunday
135,48904615.70955593
3420,48904615.70955593
3738,6791184.0
2,8, 1, 8, 0,21, 0.00,60.00,Sunday
135,48904615.70955593
3420,48904615.70955593
3738,6791184.0
2,8, 1, 8, 0,22, 0.00,60.00,Sunday
135,48904615.70955593
3420,48904615.70955593
3738,6791184.0
2,8, 1, 8, 0,23, 0.00,60.00,Sunday
135,48904615.70955593
3420,48904615.70955593
3738,6791184.0
2,8, 1, 8, 0,24, 0.00,60.00,Sunday
135,48904615.70955593
3420,48904615.70955593
3738,6791184.0
2,9, 1, 9, 0, 1, 0.00,60.00,Monday
135,57609860.1137362
3420,57609860.1137362
3738,6791184.0
2,9, 1, 9, 0, 2, 0.00,60.00,Monday
135,57609860.1137362
3420,57609860.1137362
3738,6791184.0
2,9, 1, 9, 0, 3, 0.00,60.00,Monday
135,57609860.1137362
3420,57609860.1137362
3738,6791184.0
2,9, 1, 9, 0, 4, 0.00,60.00,Monday
135,57609860.1137362
3420,57609860.1137362
3738,6791184.0
2,9, 1, 9, 0, 5, 0.00,60.00,Monday
135,57609860.1137362
3420,57609860.1137362
3738,6791184.0
2,9, 1, 9, 0, 6, 0.00,60.00,Monday
135,57609860.1137362
3420,57609860.1137362
3738,6791184.0
2,9, 1, 9, 0, 7, 0.00,60.00,Monday
135,130545480.3951583
3420,130545480.3951583
3738,6791184.0
2,9, 1, 9, 0, 8, 0.00,60.00,Monday
135,221756186.0870204
3420,221756186.08702037
3738,135173616.4195304
2,9, 1, 9, 0, 9, 0.00,60.00,Monday
135,314610120.6320348
3420,314610120.6320348
3738,82204634.97256273
2,9, 1, 9, 0,10, 0.00,60.00,Monday
135,274281617.519353
3420,274281617.5193529
3738,56920900.198987894
2,9, 1, 9, 0,11, 0.00,60.00,Monday
135,269707338.33104265
3420,269707338.3310426
3738,21574655.51662143
2,9, 1, 9, 0,12, 0.00,60.00,Monday
135,288427936.71436024
3420,288427936.71436024
3738,20903859.240474135
2,9, 1, 9, 0,13, 0.00,60.00,Monday
135,290765927.00174063
3420,290765927.00174063
3738,31355574.463557556
2,9, 1, 9, 0,14, 0.00,60.00,Monday
135,306789122.0006287
3420,306789122.00062877
3738,26214925.95772745
2,9, 1, 9, 0,15, 0.00,60.00,Monday
135,301176521.9384642
3420,301176521.9384642
3738,20171154.994865987
2,9, 1, 9, 0,16, 0.00,60.00,Monday
135,309774512.3308574
3420,309774512.33085734
3738,15658127.438812258
2,9, 1, 9, 0,17, 0.00,60.00,Monday
135,320156925.9248587
3420,320156925.9248586
3738,25336591.394032475
2,9, 1, 9, 0,18, 0.00,60.00,Monday
135,241760769.93514562
3420,241760769.93514562
3738,12527133.675541796
2,9, 1, 9, 0,19, 0.00,60.00,Monday
135,131816042.51019973
3420,131816042.51019973
3738,31764730.896546513
2,9, 1, 9, 0,20, 0.00,60.00,Monday
135,113710834.94918701
3420,113710834.94918701
3738,41061196.51679764
2,9, 1, 9, 0,21, 0.00,60.00,Monday
135,104441293.58473074
3420,104441293.58473079
3738,30849603.253015682
2,9, 1, 9, 0,22, 0.00,60.00,Monday
135,101394260.0281212
3420,101394260.02812125
3738,38194053.19208759
2,9, 1, 9, 0,23, 0.00,60.00,Monday
135,77772390.65670998
3420,77772390.65670998
3738,6791184.0
2,9, 1, 9, 0,24, 0.00,60.00,Monday
135,72442274.24247962
3420,72442274.24247962
3738,6791184.0
2,10, 1,10, 0, 1, 0.00,60.00,Tuesday
135,57996196.7332391
3420,57996196.7332391
3738,6791184.0
2,10, 1,10, 0, 2, 0.00,60.00,Tuesday
135,57609860.1137362
3420,57609860.1137362
3738,6791184.0
2,10, 1,10, 0, 3, 0.00,60.00,Tuesday
135,57609860.1137362
3420,57609860.1137362
3738,6791184.0
2,10, 1,10, 0, 4, 0.00,60.00,Tuesday
135,57609860.1137362
3420,57609860.1137362
3738,6791184.0
2,10, 1,10, 0, 5, 0.00,60.00,Tuesday
135,57609860.1137362
3420,57609860.1137362
3738,6791184.0
2,10, 1,10, 0, 6, 0.00,60.00,Tuesday
135,57609860.1137362
3420,57609860.1137362
3738,6791184.0
2,10, 1,10, 0, 7, 0.00,60.00,Tuesday
135,113146834.66040021
3420,113146834.66040023
3738,6791184.0
2,10, 1,10, 0, 8, 0.00,60.00,Tuesday
135,195419843.99022815
3420,195419843.99022815
3738,149087513.94830483
2,10, 1,10, 0, 9, 0.00,60.00,Tuesday
135,308307375.95037806
3420,308307375.95037806
3738,95712216.99751143
2,10, 1,10, 0,10, 0.00,60.00,Tuesday
135,268973612.48777103
3420,268973612.48777103
3738,74355774.38271412
2,10, 1,10, 0,11, 0.00,60.00,Tuesday
135,261438670.92042115
3420,261438670.92042112
3738,64254073.12876041
2,10, 1,10, 0,12, 0.00,60.00,Tuesday
135,271240990.09181505
3420,271240990.09181505
3738,75003961.42993172
2,10, 1,10, 0,13, 0.00,60.00,Tuesday
135,290118425.7950521
3420,290118425.7950521
3738,56525500.55934501
2,10, 1,10, 0,14, 0.00,60.00,Tuesday
135,287355214.4955426
3420,287355214.4955426
3738,35347954.59356917
2,10, 1,10, 0,15, 0.00,60.00,Tuesday
135,279288507.36103487
3420,279288507.36103487
3738,16061180.851350032
2,10, 1,10, 0,16, 0.00,60.00,Tuesday
135,281438355.8433777
3420,281438355.8433777
3738,17461876.7427804
2,10, 1,10, 0,17, 0.00,60.00,Tuesday
135,293462794.5011709
3420,293462794.5011709
3738,23452759.122505624
2,10, 1,10, 0,18, 0.00,60.00,Tuesday
135,250204799.20000857
3420,250204799.20000857
3738,38315109.756332576
2,10, 1,10, 0,19, 0.00,60.00,Tuesday
135,130974086.50186959
3420,130974086.50186962
3738,78237598.2568812
2,10, 1,10, 0,20, 0.00,60.00,Tuesday
135,113892582.30704102
3420,113892582.30704102
3738,82064182.631407
2,10, 1,10, 0,21, 0.00,60.00,Tuesday
135,104813462.96641129
3420,104813462.96641132
3738,91506872.69655728
2,10, 1,10, 0,22, 0.00,60.00,Tuesday
135,103782565.65309098
3420,103782565.653091
3738,104146241.26301146
2,10, 1,10, 0,23, 0.00,60.00,Tuesday
135,77772390.65670998
3420,77772390.65670998
3738,6791184.0
2,10, 1,10, 0,24, 0.00,60.00,Tuesday
135,72442274.24247962
3420,72442274.24247962
3738,6791184.0
2,11, 1,11, 0, 1, 0.00,60.00,Wednesday
135,57996196.7332391
3420,57996196.7332391
3738,6791184.0
2,11, 1,11, 0, 2, 0.00,60.00,Wednesday
135,57609860.1137362
3420,57609860.1137362
3738,6791184.0
2,11, 1,11, 0, 3, 0.00,60.00,Wednesday
135,57609860.1137362
3420,57609860.1137362
3738,6791184.0
2,11, 1,11, 0, 4, 0.00,60.00,Wednesday
135,57609860.1137362
3420,57609860.1137362
3738,6791184.0
2,11, 1,11, 0, 5, 0.00,60.00,Wednesday
135,57609860.1137362
3420,57609860.1137362
3738,6791184.0
2,11, 1,11, 0, 6, 0.00,60.00,Wednesday
135,57609860.1137362
3420,57609860.1137362
3738,6791184.0
2,11, 1,11, 0, 7, 0.00,60.00,Wednesday
135,108339787.36040187
3420,108339787.36040187
3738,6791184.0
2,11, 1,11, 0, 8, 0.00,60.00,Wednesday
135,188976489.1589746
3420,188976489.15897456
3738,91353246.71816237
2,11, 1,11, 0, 9, 0.00,60.00,Wednesday
135,304239972.6533874
3420,304239972.6533874
3738,62324711.52569299
2,11, 1,11, 0,10, 0.00,60.00,Wednesday
135,267229762.27167886
3420,267229762.27167886
3738,48249005.90231158
2,11, 1,11, 0,11, 0.00,60.00,Wednesday
135,261387827.71227065
3420,261387827.7122706
3738,20473351.81221593
2,11, 1,11, 0,12, 0.00,60.00,Wednesday
135,270052091.35818607
3420,270052091.358186
3738,29729721.520947594
2,11, 1,11, 0,13, 0.00,60.00,Wednesday
135,275049359.9936037
3420,275049359.9936037
3738,42625764.94790432
2,11, 1,11, 0,14, 0.00,60.00,Wednesday
135,273781582.18202794
3420,273781582.18202794
3738,30979033.031251602
2,11, 1,11, 0,15, 0.00,60.00,Wednesday
135,259715344.23890454
3420,259715344.23890448
3738,22741363.458661124
2,11, 1,11, 0,16, 0.00,60.00,Wednesday
135,260040752.68981194
3420,260040752.68981194
3738,28592117.79850947
2,11, 1,11, 0,17, 0.00,60.00,Wednesday
135,277178319.8349617
3420,277178319.8349617
3738,56967252.35134812
2,11, 1,11, 0,18, 0.00,60.00,Wednesday
135,241939926.3404197
3420,241939926.3404197
3738,60749547.30806084
2,11, 1,11, 0,19, 0.00,60.00,Wednesday
135,131778186.0209516
3420,131778186.0209516
3738,89221446.1628727
2,11, 1,11, 0,20, 0.00,60.00,Wednesday
135,114058891.20323402
3420,114058891.203234
3738,98216770.5024014
2,11, 1,11, 0,21, 0.00,60.00,Wednesday
135,105422219.8521311
3420,105422219.85213113
3738,97745725.31274381
2,11, 1,11, 0,22, 0.00,60.00,Wednesday
135,103522638.05791342
3420,103522638.05791342
3738,108291932.1239179
2,11, 1,11, 0,23, 0.00,60.00,Wednesday
135,77772390.65670998
3420,77772390.65670998
3738,6791184.0
2,11, 1,11, 0,24, 0.00,60.00,Wednesday
135,72442274.24247962
3420,72442274.24247962
3738,6791184.0
2,12, 1,12, 0, 1, 0.00,60.00,Thursday
135,57996196.7332391
3420,57996196.7332391
3738,6791184.0
2,12, 1,12, 0, 2, 0.00,60.00,Thursday
135,57609860.1137362
3420,57609860.1137362
3738,6791184.0
2,12, 1,12, 0, 3, 0.00,60.00,Thursday
135,57609860.1137362
3420,57609860.1137362
3738,6791184.0
2,12, 1,12, 0, 4, 0.00,60.00,Thursday
135,57609860.1137362
3420,57609860.1137362
3738,6791184.0
2,12, 1,12, 0, 5, 0.00,60.00,Thursday
135,57609860.1137362
3420,57609860.1137362
3738,6791184.0
2,12, 1,12, 0, 6, 0.00,60.00,Thursday
135,57609860.1137362
3420,57609860.1137362
3738,6791184.0
2,12, 1,12, 0, 7, 0.00,60.00,Thursday
135,112063158.19782984
3420,112063158.19782984
3738,6791184.0
2,12, 1,12, 0, 8, 0.00,60.00,Thursday
135,194107529.383847
3420,194107529.38384697
3738,138958471.5403152
2,12, 1,12, 0, 9, 0.00,60.00,Thursday
135,310949334.80583155
3420,310949334.8058316
3738,90218747.15818143
2,12, 1,12, 0,10, 0.00,60.00,Thursday
135,268660982.1857419
3420,268660982.1857419
3738,77504683.87882943
2,12, 1,12, 0,11, 0.00,60.00,Thursday
135,262161867.4047632
3420,262161867.4047632
3738,61323049.32771559
2,12, 1,12, 0,12, 0.00,60.00,Thursday
135,274271176.3359671
3420,274271176.3359671
3738,55556545.01970047
2,12, 1,12, 0,13, 0.00,60.00,Thursday
135,293159764.9167841
3420,293159764.9167841
3738,47768465.82318883
2,12, 1,12, 0,14, 0.00,60.00,Thursday
135,285054727.9224077
3420,285054727.9224077
3738,43326219.22056652
2,12, 1,12, 0,15, 0.00,60.00,Thursday
135,269603193.403083
3420,269603193.40308297
3738,24364494.64844261
2,12, 1,12, 0,16, 0.00,60.00,Thursday
135,269425286.4406557
3420,269425286.4406557
3738,32480371.334366377
2,12, 1,12, 0,17, 0.00,60.00,Thursday
135,288025758.39175034
3420,288025758.39175034
3738,39639417.07275837
2,12, 1,12, 0,18, 0.00,60.00,Thursday
135,249965840.91766658
3420,249965840.91766655
3738,53946913.21306005
2,12, 1,12, 0,19, 0.00,60.00,Thursday
135,133660986.98968759
3420,133660986.98968759
3738,80547959.92724174
2,12, 1,12, 0,20, 0.00,60.00,Thursday
135,113781001.66141102
3420,113781001.66141102
3738,77972076.34753135
2,12, 1,12, 0,21, 0.00,60.00,Thursday
135,105007460.02528483
3420,105007460.02528484
3738,81629534.02161802
2,12, 1,12, 0,22, 0.00,60.00,Thursday
135,102237526.23239833
3420,102237526.23239835
3738,84022805.87433943
2,12, 1,12, 0,23, 0.00,60.00,Thursday
135,77772390.65670998
3420,77772390.65670998
3738,6791184.0
2,12, 1,12, 0,24, 0.00,60.00,Thursday
135,72442274.24247962
3420,72442274.24247962
3738,6791184.0
2,13, 1,13, 0, 1, 0.00,60.00,Friday
135,57996196.7332391
3420,57996196.7332391
3738,6791184.0
2,13, 1,13, 0, 2, 0.00,60.00,Friday