Program Version,EnergyPlus, Version 9.6.0-f420c06a69, YMD=2022.07.05 15:03
1,5,Environment Title[],Latitude[deg],Longitude[deg],Time Zone[],Elevation[m]
2,8,Day of Simulation[],Month[],Day of Month[],DST Indicator[1=yes 0=no],Hour[],StartMinute[],EndMinute[],DayType
3,5,Cumulative Day of Simulation[],Month[],Day of Month[],DST Indicator[1=yes 0=no],DayType  ! When Daily Meters Requested
4,2,Cumulative Days of Simulation[],Month[]  ! When Monthly Meters Requested
5,1,Cumulative Days of Simulation[] ! When Run Period Meters Requested
6,1,Calendar Year of Simulation[] ! When Annual Meters Requested
135,1,Electricity:Facility [J] !Hourly
3420,1,ElectricityNet:Facility [J] !Hourly
3738,1,NaturalGas:Facility [J] !Hourly
End of Data Dictionary
1,RUNPERIOD 1,  35.04,-106.62,  -7.00,1619.00
2,1, 1, 1, 0, 1, 0.00,60.00,Holiday
135,46359074.93593144
3420,46359074.93593143
3738,6791184.0
2,1, 1, 1, 0, 2, 0.00,60.00,Holiday
135,46359235.70955593
3420,46359235.709555924
3738,6791184.0
2,1, 1, 1, 0, 3, 0.00,60.00,Holiday
135,46359235.70955593
3420,46359235.709555924
3738,6791184.0
2,1, 1, 1, 0, 4, 0.00,60.00,Holiday
135,46359235.70955593
3420,46359235.709555924
3738,6791184.0
2,1, 1, 1, 0, 5, 0.00,60.00,Holiday
135,46359235.70955593
3420,46359235.709555924
3738,6791184.0
2,1, 1, 1, 0, 6, 0.00,60.00,Holiday
135,46359235.70955593
3420,46359235.709555924
3738,6791184.0
2,1, 1, 1, 0, 7, 0.00,60.00,Holiday
135,66032185.73006148
3420,66032185.73006148
3738,6791184.0
2,1, 1, 1, 0, 8, 0.00,60.00,Holiday
135,50074623.774579875
3420,50074623.774579875
3738,6791184.0
2,1, 1, 1, 0, 9, 0.00,60.00,Holiday
135,46351708.9331394
3420,46351708.9331394
3738,6791184.0
2,1, 1, 1, 0,10, 0.00,60.00,Holiday
135,46288813.17904917
3420,46288813.179049164
3738,6791184.0
2,1, 1, 1, 0,11, 0.00,60.00,Holiday
135,50009342.363199614
3420,50009342.363199614
3738,6791184.0
2,1, 1, 1, 0,12, 0.00,60.00,Holiday
135,53617732.55272024
3420,53617732.55272024
3738,6791184.0
2,1, 1, 1, 0,13, 0.00,60.00,Holiday
135,53634290.22678877
3420,53634290.22678876
3738,6791184.0
2,1, 1, 1, 0,14, 0.00,60.00,Holiday
135,58165555.4574862
3420,58165555.45748622
3738,6791184.0
2,1, 1, 1, 0,15, 0.00,60.00,Holiday
135,62026144.28259239
3420,62026144.28259239
3738,6791184.0
2,1, 1, 1, 0,16, 0.00,60.00,Holiday
135,62605261.924326405
3420,62605261.924326405
3738,6791184.0
2,1, 1, 1, 0,17, 0.00,60.00,Holiday
135,50224406.74534619
3420,50224406.74534619
3738,6791184.0
2,1, 1, 1, 0,18, 0.00,60.00,Holiday
135,67534969.93162571
3420,67534969.93162571
3738,6791184.0
2,1, 1, 1, 0,19, 0.00,60.00,Holiday
135,57105773.81922845
3420,57105773.81922844
3738,6791184.0
2,1, 1, 1, 0,20, 0.00,60.00,Holiday
135,48904615.70955593
3420,48904615.70955593
3738,6791184.0
2,1, 1, 1, 0,21, 0.00,60.00,Holiday
135,48904615.70955593
3420,48904615.70955593
3738,6791184.0
2,1, 1, 1, 0,22, 0.00,60.00,Holiday
135,48904615.70955593
3420,48904615.70955593
3738,6791184.0
2,1, 1, 1, 0,23, 0.00,60.00,Holiday
135,48904615.70955593
3420,48904615.70955593
3738,6791184.0
2,1, 1, 1, 0,24, 0.00,60.00,Holiday
135,48904615.70955593
3420,48904615.70955593
3738,6791184.0
2,2, 1, 2, 0, 1, 0.00,60.00,Monday
135,57609860.1137362
3420,57609860.1137362
3738,6791184.0
2,2, 1, 2, 0, 2, 0.00,60.00,Monday
135,57609860.1137362
3420,57609860.1137362
3738,6791184.0
2,2, 1, 2, 0, 3, 0.00,60.00,Monday
135,57609860.1137362
3420,57609860.1137362
3738,6791184.0
2,2, 1, 2, 0, 4, 0.00,60.00,Monday
135,57609860.1137362
3420,57609860.1137362
3738,6791184.0
2,2, 1, 2, 0, 5, 0.00,60.00,Monday
135,57609860.1137362
3420,57609860.1137362
3738,6791184.0
2,2, 1, 2, 0, 6, 0.00,60.00,Monday
135,57609860.1137362
3420,57609860.1137362
3738,6791184.0
2,2, 1, 2, 0, 7, 0.00,60.00,Monday
135,137296304.18115827
3420,137296304.18115827
3738,6791184.0
2,2, 1, 2, 0, 8, 0.00,60.00,Monday
135,228091710.0508986
3420,228091710.0508986
3738,147577462.2909266
2,2, 1, 2, 0, 9, 0.00,60.00,Monday
135,310928566.17060184
3420,310928566.17060184
3738,92519461.25435951
2,2, 1, 2, 0,10, 0.00,60.00,Monday
135,270881865.80048376
3420,270881865.8004837
3738,64104549.62432517
2,2, 1, 2, 0,11, 0.00,60.00,Monday
135,266825978.4651965
3420,266825978.46519646
3738,26002213.802575894
2,2, 1, 2, 0,12, 0.00,60.00,Monday
135,286238561.40794075
3420,286238561.40794075
3738,20876803.489152778
2,2, 1, 2, 0,13, 0.00,60.00,Monday
135,288356518.2716734
3420,288356518.2716734
3738,31334359.881758783
2,2, 1, 2, 0,14, 0.00,60.00,Monday
135,302975525.7747885
3420,302975525.7747885
3738,26165959.05339483
2,2, 1, 2, 0,15, 0.00,60.00,Monday
135,294972021.31000483
3420,294972021.3100048
3738,16663111.546087924
2,2, 1, 2, 0,16, 0.00,60.00,Monday
135,299410344.29420304
3420,299410344.29420304
3738,19076358.658423744
2,2, 1, 2, 0,17, 0.00,60.00,Monday
135,298389053.9474881
3420,298389053.94748807
3738,20696594.044879485
2,2, 1, 2, 0,18, 0.00,60.00,Monday
135,237624719.45918894
3420,237624719.45918894
3738,24658594.589504886
2,2, 1, 2, 0,19, 0.00,60.00,Monday
135,131458533.53394982
3420,131458533.5339498
3738,57891981.091293484
2,2, 1, 2, 0,20, 0.00,60.00,Monday
135,116433380.00818448
3420,116433380.00818448
3738,72469446.82990465
2,2, 1, 2, 0,21, 0.00,60.00,Monday
135,107904137.86016025
3420,107904137.86016026
3738,84419336.25488532
2,2, 1, 2, 0,22, 0.00,60.00,Monday
135,105912372.76109348
3420,105912372.7610935
3738,86039928.28257765
2,2, 1, 2, 0,23, 0.00,60.00,Monday
135,77772390.65670998
3420,77772390.65670998
3738,6791184.0
2,2, 1, 2, 0,24, 0.00,60.00,Monday
135,72442274.24247962
3420,72442274.24247962
3738,6791184.0
2,3, 1, 3, 0, 1, 0.00,60.00,Tuesday
135,57996196.7332391
3420,57996196.7332391
3738,6791184.0
2,3, 1, 3, 0, 2, 0.00,60.00,Tuesday
135,57609860.1137362
3420,57609860.1137362
3738,6791184.0
2,3, 1, 3, 0, 3, 0.00,60.00,Tuesday
135,57609860.1137362
3420,57609860.1137362
3738,6791184.0
2,3, 1, 3, 0, 4, 0.00,60.00,Tuesday
135,57609860.1137362
3420,57609860.1137362
3738,6791184.0
2,3, 1, 3, 0, 5, 0.00,60.00,Tuesday
135,57609860.1137362
3420,57609860.1137362
3738,6791184.0
2,3, 1, 3, 0, 6, 0.00,60.00,Tuesday
135,57609860.1137362
3420,57609860.1137362
3738,6791184.0
2,3, 1, 3, 0, 7, 0.00,60.00,Tuesday
135,112102812.71491654
3420,112102812.71491656
3738,6791184.0
2,3, 1, 3, 0, 8, 0.00,60.00,Tuesday
135,192408370.01605332
3420,192408370.0160533
3738,131270974.34457883
2,3, 1, 3, 0, 9, 0.00,60.00,Tuesday
135,311377468.3005356
3420,311377468.30053556
3738,77011765.8614414
2,3, 1, 3, 0,10, 0.00,60.00,Tuesday
135,275991645.6933976
3420,275991645.6933976
3738,37032265.1894799
2,3, 1, 3, 0,11, 0.00,60.00,Tuesday
135,275027993.38438785
3420,275027993.38438785
3738,12356874.77290462
2,3, 1, 3, 0,12, 0.00,60.00,Tuesday
135,293027824.6580732
3420,293027824.6580732
3738,23129488.975600578
2,3, 1, 3, 0,13, 0.00,60.00,Tuesday
135,294632280.35879445
3420,294632280.3587944
3738,31312393.36103994
2,3, 1, 3, 0,14, 0.00,60.00,Tuesday
135,311631511.72635615
3420,311631511.72635615
3738,26179763.885574874
2,3, 1, 3, 0,15, 0.00,60.00,Tuesday
135,297469091.1916596
3420,297469091.1916596
3738,20133738.27406303
2,3, 1, 3, 0,16, 0.00,60.00,Tuesday
135,301048099.2336246
3420,301048099.2336245
3738,15641933.428970817
2,3, 1, 3, 0,17, 0.00,60.00,Tuesday
135,304381337.59458923
3420,304381337.5945892
3738,21131219.676558174
2,3, 1, 3, 0,18, 0.00,60.00,Tuesday
135,241555527.0717467
3420,241555527.07174665
3738,18150591.1484727
2,3, 1, 3, 0,19, 0.00,60.00,Tuesday
135,131866343.2953921
3420,131866343.2953921
3738,35254282.540325396
2,3, 1, 3, 0,20, 0.00,60.00,Tuesday
135,113569604.38930234
3420,113569604.38930234
3738,55618240.98964385
2,3, 1, 3, 0,21, 0.00,60.00,Tuesday
135,103004750.63109705
3420,103004750.63109705
3738,64520228.30643645
2,3, 1, 3, 0,22, 0.00,60.00,Tuesday
135,100314428.85157591
3420,100314428.85157594
3738,93974720.59014836
2,3, 1, 3, 0,23, 0.00,60.00,Tuesday
135,77772390.65670998
3420,77772390.65670998
3738,6791184.0
2,3, 1, 3, 0,24, 0.00,60.00,Tuesday
135,72442274.24247962
3420,72442274.24247962
3738,6791184.0
2,4, 1, 4, 0, 1, 0.00,60.00,Wednesday
135,57996196.7332391
3420,57996196.7332391
3738,6791184.0
2,4, 1, 4, 0, 2, 0.00,60.00,Wednesday
135,57609860.1137362
3420,57609860.1137362
3738,6791184.0
2,4, 1, 4, 0, 3, 0.00,60.00,Wednesday
135,57609860.1137362
3420,57609860.1137362
3738,6791184.0
2,4, 1, 4, 0, 4, 0.00,60.00,Wednesday
135,57609860.1137362
3420,57609860.1137362
3738,6791184.0
2,4, 1, 4, 0, 5, 0.00,60.00,Wednesday
135,57609860.1137362
3420,57609860.1137362
3738,6791184.0
2,4, 1, 4, 0, 6, 0.00,60.00,Wednesday
135,57609860.1137362
3420,57609860.1137362
3738,6791184.0
2,4, 1, 4, 0, 7, 0.00,60.00,Wednesday
135,107774072.52574906
3420,107774072.52574907
3738,6791184.0
2,4, 1, 4, 0, 8, 0.00,60.00,Wednesday
135,190977085.51973185
3420,190977085.51973185
3738,152549075.17350966
2,4, 1, 4, 0, 9, 0.00,60.00,Wednesday
135,309442795.73769474
3420,309442795.7376947
3738,90061261.93808414
2,4, 1, 4, 0,10, 0.00,60.00,Wednesday
135,270429451.7583626
3420,270429451.7583626
3738,61809308.47868821
2,4, 1, 4, 0,11, 0.00,60.00,Wednesday
135,264628704.1230281
3420,264628704.1230281
3738,42705920.408390485
2,4, 1, 4, 0,12, 0.00,60.00,Wednesday
135,278718611.7130605
3420,278718611.7130605
3738,27237330.092575423
2,4, 1, 4, 0,13, 0.00,60.00,Wednesday
135,284511525.7473638
3420,284511525.7473638
3738,31351205.050687008
2,4, 1, 4, 0,14, 0.00,60.00,Wednesday
135,289894129.4150424
3420,289894129.4150424
3738,26189702.813008703
2,4, 1, 4, 0,15, 0.00,60.00,Wednesday
135,275182970.10820526
3420,275182970.1082052
3738,20162358.474987995
2,4, 1, 4, 0,16, 0.00,60.00,Wednesday
135,274853282.9723808
3420,274853282.97238076
3738,15652705.375646915
2,4, 1, 4, 0,17, 0.00,60.00,Wednesday
135,294556686.5135559
3420,294556686.5135559
3738,25318578.899761163
2,4, 1, 4, 0,18, 0.00,60.00,Wednesday
135,251267316.60602063
3420,251267316.60602063
3738,20631977.949197866
2,4, 1, 4, 0,19, 0.00,60.00,Wednesday
135,131888589.07372302
3420,131888589.07372302
3738,37714540.541103825
2,4, 1, 4, 0,20, 0.00,60.00,Wednesday
135,113569604.38930234
3420,113569604.38930234
3738,52554108.24589509
2,4, 1, 4, 0,21, 0.00,60.00,Wednesday
135,102913361.90140839
3420,102913361.90140839
3738,65833880.561717674
2,4, 1, 4, 0,22, 0.00,60.00,Wednesday
135,99099294.84500085
3420,99099294.84500086
3738,77140171.07041092
2,4, 1, 4, 0,23, 0.00,60.00,Wednesday
135,77772390.65670998
3420,77772390.65670998
3738,6791184.0
2,4, 1, 4, 0,24, 0.00,60.00,Wednesday
135,72442274.24247962
3420,72442274.24247962
3738,6791184.0
2,5, 1, 5, 0, 1, 0.00,60.00,Thursday
135,57996196.7332391
3420,57996196.7332391
3738,6791184.0
2,5, 1, 5, 0, 2, 0.00,60.00,Thursday
135,57609860.1137362
3420,57609860.1137362
3738,6791184.0
2,5, 1, 5, 0, 3, 0.00,60.00,Thursday
135,57609860.1137362
3420,57609860.1137362
3738,6791184.0
2,5, 1, 5, 0, 4, 0.00,60.00,Thursday
135,57609860.1137362
3420,57609860.1137362
3738,6791184.0
2,5, 1, 5, 0, 5, 0.00,60.00,Thursday
135,57609860.1137362
3420,57609860.1137362
3738,6791184.0
2,5, 1, 5, 0, 6, 0.00,60.00,Thursday
135,57609860.1137362
3420,57609860.1137362
3738,6791184.0
2,5, 1, 5, 0, 7, 0.00,60.00,Thursday
135,100664134.13277073
3420,100664134.13277075
3738,6791184.0
2,5, 1, 5, 0, 8, 0.00,60.00,Thursday
135,179218138.09158877
3420,179218138.09158877
3738,123385563.81631427
2,5, 1, 5, 0, 9, 0.00,60.00,Thursday
135,310140494.9575479
3420,310140494.9575479
3738,66366961.95607806
2,5, 1, 5, 0,10, 0.00,60.00,Thursday
135,278302077.47215706
3420,278302077.47215706
3738,21145617.81198257
2,5, 1, 5, 0,11, 0.00,60.00,Thursday
135,277656547.2238385
3420,277656547.22383845
3738,11332705.54928314
2,5, 1, 5, 0,12, 0.00,60.00,Thursday
135,290287840.52319187
3420,290287840.5231918
3738,20890782.0365476
2,5, 1, 5, 0,13, 0.00,60.00,Thursday
135,290349019.8888911
3420,290349019.8888911
3738,31320858.562127728
2,5, 1, 5, 0,14, 0.00,60.00,Thursday
135,311941214.5494007
3420,311941214.54940075
3738,26189007.473221518
2,5, 1, 5, 0,15, 0.00,60.00,Thursday
135,305260067.94258845
3420,305260067.9425884
3738,20203910.290040478
2,5, 1, 5, 0,16, 0.00,60.00,Thursday
135,309027881.6614876
3420,309027881.6614876
3738,15641467.481528439
2,5, 1, 5, 0,17, 0.00,60.00,Thursday
135,312443656.95504934
3420,312443656.9550493
3738,25322054.82401494
2,5, 1, 5, 0,18, 0.00,60.00,Thursday
135,244621806.36539933
3420,244621806.36539933
3738,11106437.11808634
2,5, 1, 5, 0,19, 0.00,60.00,Thursday
135,132384235.43671827
3420,132384235.43671827
3738,18515542.883175965
2,5, 1, 5, 0,20, 0.00,60.00,Thursday
135,113569604.38930234
3420,113569604.38930234
3738,38182825.55833641
2,5, 1, 5, 0,21, 0.00,60.00,Thursday
135,102910895.06207252
3420,102910895.06207252
3738,50500896.487481296
2,5, 1, 5, 0,22, 0.00,60.00,Thursday
135,98331323.74705626
3420,98331323.74705628
3738,64229737.95698746
2,5, 1, 5, 0,23, 0.00,60.00,Thursday
135,77772390.65670998
3420,77772390.65670998
3738,6791184.0
2,5, 1, 5, 0,24, 0.00,60.00,Thursday
135,72442274.24247962
3420,72442274.24247962
3738,6791184.0
2,6, 1, 6, 0, 1, 0.00,60.00,Friday
135,57996196.7332391
3420,57996196.7332391
3738,6791184.0
2,6, 1, 6, 0, 2, 0.00,60.00,Friday
135,57609860.1137362
3420,57609860.1137362
3738,6791184.0
2,6, 1, 6, 0, 3, 0.00,60.00,Friday
135,57609860.1137362
3420,57609860.1137362
3738,6791184.0
2,6, 1, 6, 0, 4, 0.00,60.00,Friday
135,57609860.1137362
3420,57609860.1137362
3738,6791184.0
2,6, 1, 6, 0, 5, 0.00,60.00,Friday
135,57609860.1137362
3420,57609860.1137362
3738,6791184.0
2,6, 1, 6, 0, 6, 0.00,60.00,Friday
135,57609860.1137362
3420,57609860.1137362
3738,6791184.0
2,6, 1, 6, 0, 7, 0.00,60.00,Friday
135,104692760.88779551
3420,104692760.88779552
3738,6791184.0
2,6, 1, 6, 0, 8, 0.00,60.00,Friday
135,191230922.81471357
3420,191230922.81471357
3738,128552154.9998607
2,6, 1, 6, 0, 9, 0.00,60.00,Friday
135,313449081.7035528
3420,313449081.7035528
3738,89613570.99096458
2,6, 1, 6, 0,10, 0.00,60.00,Friday
135,269642642.22146577
3420,269642642.2214657
3738,82140433.02802077
2,6, 1, 6, 0,11, 0.00,60.00,Friday
135,261886479.9875229
3420,261886479.9875229
3738,71738689.1487914
2,6, 1, 6, 0,12, 0.00,60.00,Friday
135,279227605.82357264
3420,279227605.82357264
3738,49220175.092944235
2,6, 1, 6, 0,13, 0.00,60.00,Friday
135,288514578.30768704
3420,288514578.30768704
3738,28287816.253479224
2,6, 1, 6, 0,14, 0.00,60.00,Friday
135,301485464.5042886
3420,301485464.50428855
3738,27522710.58729694
2,6, 1, 6, 0,15, 0.00,60.00,Friday
135,288536581.7902574
3420,288536581.7902574
3738,18948093.63590509
2,6, 1, 6, 0,16, 0.00,60.00,Friday
135,291222764.0796864
3420,291222764.0796864
3738,15649013.703217
2,6, 1, 6, 0,17, 0.00,60.00,Friday
135,301524140.1565262
3420,301524140.1565261
3738,25643523.20672138
2,6, 1, 6, 0,18, 0.00,60.00,Friday
135,250636539.11324325
3420,250636539.11324325
3738,54800786.72640758
2,6, 1, 6, 0,19, 0.00,60.00,Friday
135,131485260.74506974
3420,131485260.74506974
3738,82860163.31580386
2,6, 1, 6, 0,20, 0.00,60.00,Friday
135,113698440.92511103
3420,113698440.92511103
3738,86038261.20579824
2,6, 1, 6, 0,21, 0.00,60.00,Friday
135,105065647.80495234
3420,105065647.80495235
3738,103349671.1367349
2,6, 1, 6, 0,22, 0.00,60.00,Friday
135,101879628.78208283
3420,101879628.78208286
3738,102049353.82039228
2,6, 1, 6, 0,23, 0.00,60.00,Friday
135,77772390.65670998
3420,77772390.65670998
3738,6791184.0
2,6, 1, 6, 0,24, 0.00,60.00,Friday
135,72442274.24247962
3420,72442274.24247962
3738,6791184.0
2,7, 1, 7, 0, 1, 0.00,60.00,Saturday
135,46745513.81922844
3420,46745513.81922843
3738,6791184.0
2,7, 1, 7, 0, 2, 0.00,60.00,Saturday
135,46359235.70955593
3420,46359235.709555924
3738,6791184.0
2,7, 1, 7, 0, 3, 0.00,60.00,Saturday
135,46359235.70955593
3420,46359235.709555924
3738,6791184.0
2,7, 1, 7, 0, 4, 0.00,60.00,Saturday
135,46359235.70955593
3420,46359235.709555924
3738,6791184.0
2,7, 1, 7, 0, 5, 0.00,60.00,Saturday
135,46359235.70955593
3420,46359235.709555924
3738,6791184.0
2,7, 1, 7, 0, 6, 0.00,60.00,Saturday
135,46359235.70955593
3420,46359235.709555924
3738,6791184.0
2,7, 1, 7, 0, 7, 0.00,60.00,Saturday
135,114243520.86393452
3420,114243520.86393452
3738,6791184.0
2,7, 1, 7, 0, 8, 0.00,60.00,Saturday
135,145336722.3926114
3420,145336722.3926114
3738,136705521.5249528
2,7, 1, 7, 0, 9, 0.00,60.00,Saturday
135,135880145.49639097
3420,135880145.49639097
3738,119728191.03389083
2,7, 1, 7, 0,10, 0.00,60.00,Saturday
135,136649462.9317931
3420,136649462.9317931
3738,106496351.49772719
2,7, 1, 7, 0,11, 0.00,60.00,Saturday
135,129025722.21317357
3420,129025722.21317354
3738,78888099.0334056
2,7, 1, 7, 0,12, 0.00,60.00,Saturday
135,137623695.46984386
3420,137623695.46984392
3738,37658309.10205995
2,7, 1, 7, 0,13, 0.00,60.00,Saturday
135,96882759.0683891
3420,96882759.0683891
3738,24908990.810949102
2,7, 1, 7, 0,14, 0.00,60.00,Saturday
135,86585388.12843831
3420,86585388.12843831
3738,26694846.20755917
2,7, 1, 7, 0,15, 0.00,60.00,Saturday
135,80777988.06353001
3420,80777988.06353001
3738,24327998.146299496
2,7, 1, 7, 0,16, 0.00,60.00,Saturday
135,76390043.05621484
3420,76390043.05621485
3738,32454978.106216453
2,7, 1, 7, 0,17, 0.00,60.00,Saturday
135,79595578.36627977
3420,79595578.36627978
3738,41560906.51453599
2,7, 1, 7, 0,18, 0.00,60.00,Saturday
135,83077160.33306564
3420,83077160.33306564
3738,55505117.38757939
2,7, 1, 7, 0,19, 0.00,60.00,Saturday
135,66276703.53612528
3420,66276703.53612528
3738,6791184.0
2,7, 1, 7, 0,20, 0.00,60.00,Saturday
135,49290893.81922844
3420,49290893.81922844
3738,6791184.0
2,7, 1, 7, 0,21, 0.00,60.00,Saturday
135,48904615.70955593
3420,48904615.70955593
3738,6791184.0
2,7, 1, 7, 0,22, 0.00,60.00,Saturday
135,48904615.70955593
3420,48904615.70955593
3738,6791184.0
2,7, 1, 7, 0,23, 0.00,60.00,Saturday
135,48904615.70955593
3420,48904615.70955593
3738,6791184.0
2,7, 1, 7, 0,24, 0.00,60.00,Saturday
135,48904615.70955593
3420,48904615.70955593
3738,6791184.0
2,8, 1, 8, 0, 1, 0.00,60.00,Sunday
135,46359235.70955593
3420,46359235.709555924
3738,6791184.0
2,8, 1, 8, 0, 2, 0.00,60.00,Sunday
135,46359235.70955593
3420,46359235.709555924
3738,6791184.0
2,8, 1, 8, 0, 3, 0.00,60.00,Sunday
135,46359235.70955593
3420,46359235.709555924
3738,6791184.0
2,8, 1, 8, 0, 4, 0.00,60.00,Sunday
135,46359235.70955593
3420,46359235.709555924
3738,6791184.0
2,8, 1, 8, 0, 5, 0.00,60.00,Sunday
135,46359235.70955593
3420,46359235.709555924
3738,6791184.0
2,8, 1, 8, 0, 6, 0.00,60.00,Sunday
135,46359235.70955593
3420,46359235.709555924
3738,6791184.0
2,8, 1, 8, 0, 7, 0.00,60.00,Sunday
135,66032185.73006148
3420,66032185.73006148
3738,6791184.0
2,8, 1, 8, 0, 8, 0.00,60.00,Sunday
135,53323580.330645084
3420,53323580.330645084
3738,6791184.0
2,8, 1, 8, 0, 9, 0.00,60.00,Sunday
135,46344166.24829911
3420,46344166.24829911
3738,6791184.0
2,8, 1, 8, 0,10, 0.00,60.00,Sunday
135,46288812.51597283
3420,46288812.51597283
3738,6791184.0
2,8, 1, 8, 0,11, 0.00,60.00,Sunday
135,47246006.34324
3420,47246006.34323999
3738,6791184.0
2,8, 1, 8, 0,12, 0.00,60.00,Sunday
135,50964555.3327159
3420,50964555.33271589
3738,6791184.0
2,8, 1, 8, 0,13, 0.00,60.00,Sunday
135,53625802.42750436
3420,53625802.42750437
3738,6791184.0
2,8, 1, 8, 0,14, 0.00,60.00,Sunday
135,54307215.677956074
3420,54307215.677956074
3738,6791184.0
2,8, 1, 8, 0,15, 0.00,60.00,Sunday
135,53571799.010946944
3420,53571799.010946944
3738,6791184.0
2,8, 1, 8, 0,16, 0.00,60.00,Sunday
135,54093156.71478446
3420,54093156.71478446
3738,6791184.0
2,8, 1, 8, 0,17, 0.00,60.00,Sunday
135,50079799.93191748
3420,50079799.93191748
3738,6791184.0
2,8, 1, 8, 0,18, 0.00,60.00,Sunday
135,66276671.30593526
3420,66276671.30593526
3738,6791184.0
2,8, 1, 8, 0,19, 0.00,60.00,Sunday
135,57105773.81922845
3420,57105773.81922844
3738,6791184.0
2,8, 1, 8, 0,20, 0.00,60.00,Sunday
135,48904615.70955593
3420,48904615.70955593
3738,6791184.0
2,8, 1, 8, 0,21, 0.00,60.00,Sunday
135,48904615.70955593
3420,48904615.70955593
3738,6791184.0
2,8, 1, 8, 0,22, 0.00,60.00,Sunday
135,48904615.70955593
3420,48904615.70955593
3738,6791184.0
2,8, 1, 8, 0,23, 0.00,60.00,Sunday
135,48904615.70955593
3420,48904615.70955593
3738,6791184.0
2,8, 1, 8, 0,24, 0.00,60.00,Sunday
135,48904615.70955593
3420,48904615.70955593
3738,6791184.0
2,9, 1, 9, 0, 1, 0.00,60.00,Monday
135,57609860.1137362
3420,57609860.1137362
3738,6791184.0
2,9, 1, 9, 0, 2, 0.00,60.00,Monday
135,57609860.1137362
3420,57609860.1137362
3738,6791184.0
2,9, 1, 9, 0, 3, 0.00,60.00,Monday
135,57609860.1137362
3420,57609860.1137362
3738,6791184.0
2,9, 1, 9, 0, 4, 0.00,60.00,Monday
135,57609860.1137362
3420,57609860.1137362
3738,6791184.0
2,9, 1, 9, 0, 5, 0.00,60.00,Monday
135,57609860.1137362
3420,57609860.1137362
3738,6791184.0
2,9, 1, 9, 0, 6, 0.00,60.00,Monday
135,57609860.1137362
3420,57609860.1137362
3738,6791184.0
2,9, 1, 9, 0, 7, 0.00,60.00,Monday
135,131185426.52195145
3420,131185426.52195145
3738,6791184.0
2,9, 1, 9, 0, 8, 0.00,60.00,Monday
135,222367173.07225716
3420,222367173.07225716
3738,132456272.56574026
2,9, 1, 9, 0, 9, 0.00,60.00,Monday
135,314988421.69147074
3420,314988421.69147074
3738,79630635.78629848
2,9, 1, 9, 0,10, 0.00,60.00,Monday
135,274774878.63289434
3420,274774878.63289434
3738,53188040.274805054
2,9, 1, 9, 0,11, 0.00,60.00,Monday
135,270580643.4965842
3420,270580643.4965841
3738,17857291.879427083
2,9, 1, 9, 0,12, 0.00,60.00,Monday
135,286431187.04148155
3420,286431187.0414815
3738,20903858.732001588
2,9, 1, 9, 0,13, 0.00,60.00,Monday
135,284759189.12396306
3420,284759189.12396306
3738,31355574.39458166
2,9, 1, 9, 0,14, 0.00,60.00,Monday
135,300724412.34801865
3420,300724412.34801865
3738,26214926.074713215
2,9, 1, 9, 0,15, 0.00,60.00,Monday
135,296547557.88934666
3420,296547557.88934666
3738,20171155.715074066
2,9, 1, 9, 0,16, 0.00,60.00,Monday
135,305344850.6742344
3420,305344850.67423433
3738,15658129.052884623
2,9, 1, 9, 0,17, 0.00,60.00,Monday
135,313531503.67260385
3420,313531503.67260385
3738,25336591.03456596
2,9, 1, 9, 0,18, 0.00,60.00,Monday
135,241597959.2294355
3420,241597959.2294355
3738,11103371.491166065
2,9, 1, 9, 0,19, 0.00,60.00,Monday
135,131911838.1700041
3420,131911838.1700041
3738,21839526.311696824
2,9, 1, 9, 0,20, 0.00,60.00,Monday
135,113569604.38930234
3420,113569604.38930234
3738,27853190.836452477
2,9, 1, 9, 0,21, 0.00,60.00,Monday
135,103674260.47416133
3420,103674260.47416134
3738,17637341.897531293
2,9, 1, 9, 0,22, 0.00,60.00,Monday
135,100306075.05104743
3420,100306075.05104744
3738,24018867.289936073
2,9, 1, 9, 0,23, 0.00,60.00,Monday
135,77772390.65670998
3420,77772390.65670998
3738,6791184.0
2,9, 1, 9, 0,24, 0.00,60.00,Monday
135,72442274.24247962
3420,72442274.24247962
3738,6791184.0
2,10, 1,10, 0, 1, 0.00,60.00,Tuesday
135,57996196.7332391
3420,57996196.7332391
3738,6791184.0
2,10, 1,10, 0, 2, 0.00,60.00,Tuesday
135,57609860.1137362
3420,57609860.1137362
3738,6791184.0
2,10, 1,10, 0, 3, 0.00,60.00,Tuesday
135,57609860.1137362
3420,57609860.1137362
3738,6791184.0
2,10, 1,10, 0, 4, 0.00,60.00,Tuesday
135,57609860.1137362
3420,57609860.1137362
3738,6791184.0
2,10, 1,10, 0, 5, 0.00,60.00,Tuesday
135,57609860.1137362
3420,57609860.1137362
3738,6791184.0
2,10, 1,10, 0, 6, 0.00,60.00,Tuesday
135,57609860.1137362
3420,57609860.1137362
3738,6791184.0
2,10, 1,10, 0, 7, 0.00,60.00,Tuesday
135,109035907.0126991
3420,109035907.01269913
3738,6791184.0
2,10, 1,10, 0, 8, 0.00,60.00,Tuesday
135,188335675.89695475
3420,188335675.89695475
3738,128965190.65925887
2,10, 1,10, 0, 9, 0.00,60.00,Tuesday
135,308649214.01518536
3420,308649214.0151855
3738,82805772.43460515
2,10, 1,10, 0,10, 0.00,60.00,Tuesday
135,270973380.20220214
3420,270973380.2022021
3738,60544801.968518406
2,10, 1,10, 0,11, 0.00,60.00,Tuesday
135,263732092.02322048
3420,263732092.02322045
3738,50623883.60380809
2,10, 1,10, 0,12, 0.00,60.00,Tuesday
135,273478593.2914188
3420,273478593.2914188
3738,60639132.15563361
2,10, 1,10, 0,13, 0.00,60.00,Tuesday
135,286647358.6859036
3420,286647358.6859036
3738,42861673.997293375
2,10, 1,10, 0,14, 0.00,60.00,Tuesday
135,290182581.2037661
3420,290182581.2037661
3738,30860065.029285546
2,10, 1,10, 0,15, 0.00,60.00,Tuesday
135,281348616.80502975
3420,281348616.8050297
3738,16096311.105975442
2,10, 1,10, 0,16, 0.00,60.00,Tuesday
135,283185031.61533403
3420,283185031.615334
3738,17422394.07673792
2,10, 1,10, 0,17, 0.00,60.00,Tuesday
135,295328586.0878139
3420,295328586.0878139
3738,23493710.75156831
2,10, 1,10, 0,18, 0.00,60.00,Tuesday
135,248254640.25458068
3420,248254640.25458068
3738,25802046.008626476
2,10, 1,10, 0,19, 0.00,60.00,Tuesday
135,130992581.96496311
3420,130992581.96496311
3738,58237841.31813428
2,10, 1,10, 0,20, 0.00,60.00,Tuesday
135,113569604.38930234
3420,113569604.38930234
3738,62831221.445696115
2,10, 1,10, 0,21, 0.00,60.00,Tuesday
135,103300667.04851586
3420,103300667.04851586
3738,72792336.77849717
2,10, 1,10, 0,22, 0.00,60.00,Tuesday
135,100800518.3412262
3420,100800518.34122622
3738,86287679.73298346
2,10, 1,10, 0,23, 0.00,60.00,Tuesday
135,77772390.65670998
3420,77772390.65670998
3738,6791184.0
2,10, 1,10, 0,24, 0.00,60.00,Tuesday
135,72442274.24247962
3420,72442274.24247962
3738,6791184.0
2,11, 1,11, 0, 1, 0.00,60.00,Wednesday
135,57996196.7332391
3420,57996196.7332391
3738,6791184.0
2,11, 1,11, 0, 2, 0.00,60.00,Wednesday
135,57609860.1137362
3420,57609860.1137362
3738,6791184.0
2,11, 1,11, 0, 3, 0.00,60.00,Wednesday
135,57609860.1137362
3420,57609860.1137362
3738,6791184.0
2,11, 1,11, 0, 4, 0.00,60.00,Wednesday
135,57609860.1137362
3420,57609860.1137362
3738,6791184.0
2,11, 1,11, 0, 5, 0.00,60.00,Wednesday
135,57609860.1137362
3420,57609860.1137362
3738,6791184.0
2,11, 1,11, 0, 6, 0.00,60.00,Wednesday
135,57609860.1137362
3420,57609860.1137362
3738,6791184.0
2,11, 1,11, 0, 7, 0.00,60.00,Wednesday
135,103757191.2949808
3420,103757191.29498082
3738,6791184.0
2,11, 1,11, 0, 8, 0.00,60.00,Wednesday
135,180767270.79717338
3420,180767270.79717338
3738,76314707.99979605
2,11, 1,11, 0, 9, 0.00,60.00,Wednesday
135,302317128.6187697
3420,302317128.6187697
3738,53745749.73672103
2,11, 1,11, 0,10, 0.00,60.00,Wednesday
135,267515104.56044587
3420,267515104.56044582
3738,37945049.866173536
2,11, 1,11, 0,11, 0.00,60.00,Wednesday
135,262369321.87131524
3420,262369321.87131524
3738,13785292.604961392
2,11, 1,11, 0,12, 0.00,60.00,Wednesday
135,271120530.48972744
3420,271120530.48972744
3738,25766933.847716827
2,11, 1,11, 0,13, 0.00,60.00,Wednesday
135,272786433.6407576
3420,272786433.64075756
3738,35256616.68285285
2,11, 1,11, 0,14, 0.00,60.00,Wednesday
135,274126401.42862296
3420,274126401.42862296
3738,27497159.812629126
2,11, 1,11, 0,15, 0.00,60.00,Wednesday
135,260098355.0426643
3420,260098355.0426643
3738,20141801.200121433
2,11, 1,11, 0,16, 0.00,60.00,Wednesday
135,260394021.4779486
3420,260394021.47794858
3738,22779876.417947337
2,11, 1,11, 0,17, 0.00,60.00,Wednesday
135,277475456.26214314
3420,277475456.26214314
3738,52162850.03615874
2,11, 1,11, 0,18, 0.00,60.00,Wednesday
135,241924801.61264765
3420,241924801.61264765
3738,57860729.27651131
2,11, 1,11, 0,19, 0.00,60.00,Wednesday
135,131657729.41562879
3420,131657729.41562879
3738,85309729.50273754
2,11, 1,11, 0,20, 0.00,60.00,Wednesday
135,113584681.10863194
3420,113584681.10863194
3738,95686755.11543658
2,11, 1,11, 0,21, 0.00,60.00,Wednesday
135,104177046.54925025
3420,104177046.54925027
3738,96277216.21984126
2,11, 1,11, 0,22, 0.00,60.00,Wednesday
135,101711254.46665952
3420,101711254.46665952
3738,107974655.80911173
2,11, 1,11, 0,23, 0.00,60.00,Wednesday
135,77772390.65670998
3420,77772390.65670998
3738,6791184.0
2,11, 1,11, 0,24, 0.00,60.00,Wednesday
135,72442274.24247962
3420,72442274.24247962
3738,6791184.0
2,12, 1,12, 0, 1, 0.00,60.00,Thursday
135,57996196.7332391
3420,57996196.7332391
3738,6791184.0
2,12, 1,12, 0, 2, 0.00,60.00,Thursday
135,57609860.1137362
3420,57609860.1137362
3738,6791184.0
2,12, 1,12, 0, 3, 0.00,60.00,Thursday
135,57609860.1137362
3420,57609860.1137362
3738,6791184.0
2,12, 1,12, 0, 4, 0.00,60.00,Thursday
135,57609860.1137362
3420,57609860.1137362
3738,6791184.0
2,12, 1,12, 0, 5, 0.00,60.00,Thursday
135,57609860.1137362
3420,57609860.1137362
3738,6791184.0
2,12, 1,12, 0, 6, 0.00,60.00,Thursday
135,57609860.1137362
3420,57609860.1137362
3738,6791184.0
2,12, 1,12, 0, 7, 0.00,60.00,Thursday
135,110586853.35554579
3420,110586853.35554579
3738,6791184.0
2,12, 1,12, 0, 8, 0.00,60.00,Thursday
135,191700139.64490414
3420,191700139.6449041
3738,141760880.20740333
2,12, 1,12, 0, 9, 0.00,60.00,Thursday
135,310599670.95168746
3420,310599670.9516875
3738,92115925.1546904
2,12, 1,12, 0,10, 0.00,60.00,Thursday
135,268651210.593812
3420,268651210.593812
3738,79727446.48530217
2,12, 1,12, 0,11, 0.00,60.00,Thursday
135,262327077.51403522
3420,262327077.51403522
3738,63217454.475539684
2,12, 1,12, 0,12, 0.00,60.00,Thursday
135,274479525.16998434
3420,274479525.16998434
3738,57306743.558133684
2,12, 1,12, 0,13, 0.00,60.00,Thursday
135,293515338.2171614
3420,293515338.21716136
3738,49452998.33010492
2,12, 1,12, 0,14, 0.00,60.00,Thursday
135,285252973.3153742
3420,285252973.3153742
3738,44441980.74645925
2,12, 1,12, 0,15, 0.00,60.00,Thursday
135,269752019.5189664
3420,269752019.5189663
3738,25801810.33391366
2,12, 1,12, 0,16, 0.00,60.00,Thursday
135,269553263.27973306
3420,269553263.27973306
3738,34143617.694750495
2,12, 1,12, 0,17, 0.00,60.00,Thursday
135,288151070.7230193
3420,288151070.72301924
3738,41482503.60297405
2,12, 1,12, 0,18, 0.00,60.00,Thursday
135,249981063.1424789
3420,249981063.14247888
3738,56064427.93551606
2,12, 1,12, 0,19, 0.00,60.00,Thursday
135,133540012.5803054
3420,133540012.5803054
3738,83858790.80707537
2,12, 1,12, 0,20, 0.00,60.00,Thursday
135,113698982.50170884
3420,113698982.50170884
3738,81209247.11946398
2,12, 1,12, 0,21, 0.00,60.00,Thursday
135,104829002.36319911
3420,104829002.36319914
3738,84858247.44682631
2,12, 1,12, 0,22, 0.00,60.00,Thursday
135,102035219.93188164
3420,102035219.93188164
3738,87211329.52049854
2,12, 1,12, 0,23, 0.00,60.00,Thursday
135,77772390.65670998
3420,77772390.65670998
3738,6791184.0
2,12, 1,12, 0,24, 0.00,60.00,Thursday
135,72442274.24247962
3420,72442274.24247962
3738,6791184.0
2,13, 1,13, 0, 1, 0.00,60.00,Friday
135,57996196.7332391
3420,57996196.7332391