Program Version,EnergyPlus, Version 9.6.0-f420c06a69, YMD=2022.07.16 15:10
1,5,Environment Title[],Latitude[deg],Longitude[deg],Time Zone[],Elevation[m]
2,8,Day of Simulation[],Month[],Day of Month[],DST Indicator[1=yes 0=no],Hour[],StartMinute[],EndMinute[],DayType
3,5,Cumulative Day of Simulation[],Month[],Day of Month[],DST Indicator[1=yes 0=no],DayType  ! When Daily Meters Requested
4,2,Cumulative Days of Simulation[],Month[]  ! When Monthly Meters Requested
5,1,Cumulative Days of Simulation[] ! When Run Period Meters Requested
6,1,Calendar Year of Simulation[] ! When Annual Meters Requested
135,1,Electricity:Facility [J] !Hourly
3420,1,ElectricityNet:Facility [J] !Hourly
3738,1,NaturalGas:Facility [J] !Hourly
End of Data Dictionary
1,RUNPERIOD 1,  35.04,-106.62,  -7.00,1619.00
2,1, 1, 1, 0, 1, 0.00,60.00,Holiday
135,46359074.93593144
3420,46359074.93593143
3738,6791184.0
2,1, 1, 1, 0, 2, 0.00,60.00,Holiday
135,46359235.70955593
3420,46359235.709555924
3738,6791184.0
2,1, 1, 1, 0, 3, 0.00,60.00,Holiday
135,46359235.70955593
3420,46359235.709555924
3738,6791184.0
2,1, 1, 1, 0, 4, 0.00,60.00,Holiday
135,46359235.70955593
3420,46359235.709555924
3738,6791184.0
2,1, 1, 1, 0, 5, 0.00,60.00,Holiday
135,46359235.70955593
3420,46359235.709555924
3738,6791184.0
2,1, 1, 1, 0, 6, 0.00,60.00,Holiday
135,46359235.70955593
3420,46359235.709555924
3738,6791184.0
2,1, 1, 1, 0, 7, 0.00,60.00,Holiday
135,66032185.73006148
3420,66032185.73006148
3738,6791184.0
2,1, 1, 1, 0, 8, 0.00,60.00,Holiday
135,50074623.774579875
3420,50074623.774579875
3738,6791184.0
2,1, 1, 1, 0, 9, 0.00,60.00,Holiday
135,46351708.9331394
3420,46351708.9331394
3738,6791184.0
2,1, 1, 1, 0,10, 0.00,60.00,Holiday
135,46288813.17904917
3420,46288813.179049164
3738,6791184.0
2,1, 1, 1, 0,11, 0.00,60.00,Holiday
135,51149014.50787013
3420,51149014.50787013
3738,6791184.0
2,1, 1, 1, 0,12, 0.00,60.00,Holiday
135,53542591.30173427
3420,53542591.30173427
3738,6791184.0
2,1, 1, 1, 0,13, 0.00,60.00,Holiday
135,54827857.64153222
3420,54827857.64153222
3738,6791184.0
2,1, 1, 1, 0,14, 0.00,60.00,Holiday
135,61196507.52122828
3420,61196507.5212283
3738,6791184.0
2,1, 1, 1, 0,15, 0.00,60.00,Holiday
135,67239153.60782859
3420,67239153.60782859
3738,6791184.0
2,1, 1, 1, 0,16, 0.00,60.00,Holiday
135,64721412.807741076
3420,64721412.80774109
3738,6791184.0
2,1, 1, 1, 0,17, 0.00,60.00,Holiday
135,55473596.479658276
3420,55473596.479658276
3738,6791184.0
2,1, 1, 1, 0,18, 0.00,60.00,Holiday
135,66905826.86107348
3420,66905826.86107348
3738,6791184.0
2,1, 1, 1, 0,19, 0.00,60.00,Holiday
135,57105773.81922845
3420,57105773.81922844
3738,6791184.0
2,1, 1, 1, 0,20, 0.00,60.00,Holiday
135,48904615.70955593
3420,48904615.70955593
3738,6791184.0
2,1, 1, 1, 0,21, 0.00,60.00,Holiday
135,48904615.70955593
3420,48904615.70955593
3738,6791184.0
2,1, 1, 1, 0,22, 0.00,60.00,Holiday
135,48904615.70955593
3420,48904615.70955593
3738,6791184.0
2,1, 1, 1, 0,23, 0.00,60.00,Holiday
135,48904615.70955593
3420,48904615.70955593
3738,6791184.0
2,1, 1, 1, 0,24, 0.00,60.00,Holiday
135,48904615.70955593
3420,48904615.70955593
3738,6791184.0
2,2, 1, 2, 0, 1, 0.00,60.00,Monday
135,57609860.1137362
3420,57609860.1137362
3738,6791184.0
2,2, 1, 2, 0, 2, 0.00,60.00,Monday
135,57609860.1137362
3420,57609860.1137362
3738,6791184.0
2,2, 1, 2, 0, 3, 0.00,60.00,Monday
135,57609860.1137362
3420,57609860.1137362
3738,6791184.0
2,2, 1, 2, 0, 4, 0.00,60.00,Monday
135,57609860.1137362
3420,57609860.1137362
3738,6791184.0
2,2, 1, 2, 0, 5, 0.00,60.00,Monday
135,57609860.1137362
3420,57609860.1137362
3738,6791184.0
2,2, 1, 2, 0, 6, 0.00,60.00,Monday
135,57609860.1137362
3420,57609860.1137362
3738,6791184.0
2,2, 1, 2, 0, 7, 0.00,60.00,Monday
135,127996825.63454857
3420,127996825.63454857
3738,6791184.0
2,2, 1, 2, 0, 8, 0.00,60.00,Monday
135,215776918.25572556
3420,215776918.25572553
3738,138020718.205081
2,2, 1, 2, 0, 9, 0.00,60.00,Monday
135,308779831.98790205
3420,308779831.98790205
3738,82873177.66038454
2,2, 1, 2, 0,10, 0.00,60.00,Monday
135,272391633.6877966
3420,272391633.68779653
3738,53951717.89646106
2,2, 1, 2, 0,11, 0.00,60.00,Monday
135,270626858.73905873
3420,270626858.73905873
3738,16290746.029742379
2,2, 1, 2, 0,12, 0.00,60.00,Monday
135,289695713.59204376
3420,289695713.59204376
3738,20876788.629584327
2,2, 1, 2, 0,13, 0.00,60.00,Monday
135,291132855.59700644
3420,291132855.59700644
3738,31334466.06780298
2,2, 1, 2, 0,14, 0.00,60.00,Monday
135,308021486.08789706
3420,308021486.08789706
3738,26165957.600102253
2,2, 1, 2, 0,15, 0.00,60.00,Monday
135,301222934.61526537
3420,301222934.6152653
3738,16608219.527592774
2,2, 1, 2, 0,16, 0.00,60.00,Monday
135,306260640.67507416
3420,306260640.67507416
3738,19132384.55082509
2,2, 1, 2, 0,17, 0.00,60.00,Monday
135,303775473.3403636
3420,303775473.34036356
3738,20696667.15605069
2,2, 1, 2, 0,18, 0.00,60.00,Monday
135,238144633.47194412
3420,238144633.4719441
3738,19995254.898005724
2,2, 1, 2, 0,19, 0.00,60.00,Monday
135,130915817.59055667
3420,130915817.59055667
3738,46965666.73843971
2,2, 1, 2, 0,20, 0.00,60.00,Monday
135,114591120.3768551
3420,114591120.3768551
3738,60485811.603654675
2,2, 1, 2, 0,21, 0.00,60.00,Monday
135,105863576.09982648
3420,105863576.09982648
3738,74237317.72791636
2,2, 1, 2, 0,22, 0.00,60.00,Monday
135,103011114.57527736
3420,103011114.57527736
3738,75836107.61545125
2,2, 1, 2, 0,23, 0.00,60.00,Monday
135,77772390.65670998
3420,77772390.65670998
3738,6791184.0
2,2, 1, 2, 0,24, 0.00,60.00,Monday
135,72442274.24247962
3420,72442274.24247962
3738,6791184.0
2,3, 1, 3, 0, 1, 0.00,60.00,Tuesday
135,57996196.7332391
3420,57996196.7332391
3738,6791184.0
2,3, 1, 3, 0, 2, 0.00,60.00,Tuesday
135,57609860.1137362
3420,57609860.1137362
3738,6791184.0
2,3, 1, 3, 0, 3, 0.00,60.00,Tuesday
135,57609860.1137362
3420,57609860.1137362
3738,6791184.0
2,3, 1, 3, 0, 4, 0.00,60.00,Tuesday
135,57609860.1137362
3420,57609860.1137362
3738,6791184.0
2,3, 1, 3, 0, 5, 0.00,60.00,Tuesday
135,57609860.1137362
3420,57609860.1137362
3738,6791184.0
2,3, 1, 3, 0, 6, 0.00,60.00,Tuesday
135,57609860.1137362
3420,57609860.1137362
3738,6791184.0
2,3, 1, 3, 0, 7, 0.00,60.00,Tuesday
135,106931257.37472215
3420,106931257.37472212
3738,6791184.0
2,3, 1, 3, 0, 8, 0.00,60.00,Tuesday
135,184734841.1423446
3420,184734841.1423446
3738,120832959.7297068
2,3, 1, 3, 0, 9, 0.00,60.00,Tuesday
135,312265575.62436616
3420,312265575.62436616
3738,68892671.80928904
2,3, 1, 3, 0,10, 0.00,60.00,Tuesday
135,279812349.24392164
3420,279812349.24392164
3738,27777781.23698724
2,3, 1, 3, 0,11, 0.00,60.00,Tuesday
135,278334900.0313619
3420,278334900.0313619
3738,9295933.261404604
2,3, 1, 3, 0,12, 0.00,60.00,Tuesday
135,290684622.63813865
3420,290684622.63813865
3738,23542259.622301124
2,3, 1, 3, 0,13, 0.00,60.00,Tuesday
135,290073427.60944575
3420,290073427.60944575
3738,31314670.33408197
2,3, 1, 3, 0,14, 0.00,60.00,Tuesday
135,310554409.9562819
3420,310554409.9562819
3738,26173988.02904437
2,3, 1, 3, 0,15, 0.00,60.00,Tuesday
135,303248245.6470792
3420,303248245.6470792
3738,20136318.287443794
2,3, 1, 3, 0,16, 0.00,60.00,Tuesday
135,306185205.7336093
3420,306185205.73360926
3738,15643327.530447666
2,3, 1, 3, 0,17, 0.00,60.00,Tuesday
135,307699702.62061536
3420,307699702.6206153
3738,20680908.0830659
2,3, 1, 3, 0,18, 0.00,60.00,Tuesday
135,242381572.93286878
3420,242381572.93286878
3738,18392905.224784456
2,3, 1, 3, 0,19, 0.00,60.00,Tuesday
135,131962285.49089381
3420,131962285.49089381
3738,35771888.5348615
2,3, 1, 3, 0,20, 0.00,60.00,Tuesday
135,113569604.38930234
3420,113569604.38930234
3738,58129701.66152578
2,3, 1, 3, 0,21, 0.00,60.00,Tuesday
135,102910895.06207252
3420,102910895.06207252
3738,69303953.72023508
2,3, 1, 3, 0,22, 0.00,60.00,Tuesday
135,99426201.51066203
3420,99426201.51066203
3738,100360107.58436693
2,3, 1, 3, 0,23, 0.00,60.00,Tuesday
135,77772390.65670998
3420,77772390.65670998
3738,6791184.0
2,3, 1, 3, 0,24, 0.00,60.00,Tuesday
135,72442274.24247962
3420,72442274.24247962
3738,6791184.0
2,4, 1, 4, 0, 1, 0.00,60.00,Wednesday
135,57996196.7332391
3420,57996196.7332391
3738,6791184.0
2,4, 1, 4, 0, 2, 0.00,60.00,Wednesday
135,57609860.1137362
3420,57609860.1137362
3738,6791184.0
2,4, 1, 4, 0, 3, 0.00,60.00,Wednesday
135,57609860.1137362
3420,57609860.1137362
3738,6791184.0
2,4, 1, 4, 0, 4, 0.00,60.00,Wednesday
135,57609860.1137362
3420,57609860.1137362
3738,6791184.0
2,4, 1, 4, 0, 5, 0.00,60.00,Wednesday
135,57609860.1137362
3420,57609860.1137362
3738,6791184.0
2,4, 1, 4, 0, 6, 0.00,60.00,Wednesday
135,57609860.1137362
3420,57609860.1137362
3738,6791184.0
2,4, 1, 4, 0, 7, 0.00,60.00,Wednesday
135,110443492.84523824
3420,110443492.84523824
3738,6791184.0
2,4, 1, 4, 0, 8, 0.00,60.00,Wednesday
135,195237287.86703363
3420,195237287.86703366
3738,179691010.48715237
2,4, 1, 4, 0, 9, 0.00,60.00,Wednesday
135,310532716.7521183
3420,310532716.75211835
3738,109377272.83833681
2,4, 1, 4, 0,10, 0.00,60.00,Wednesday
135,268647453.44660944
3420,268647453.44660944
3738,81977086.4232475
2,4, 1, 4, 0,11, 0.00,60.00,Wednesday
135,262163208.35891736
3420,262163208.35891736
3738,63818585.66056458
2,4, 1, 4, 0,12, 0.00,60.00,Wednesday
135,275474949.76138794
3420,275474949.76138794
3738,48249985.309988566
2,4, 1, 4, 0,13, 0.00,60.00,Wednesday
135,285433517.74307954
3420,285433517.7430795
3738,39744605.398044735
2,4, 1, 4, 0,14, 0.00,60.00,Wednesday
135,287976846.77754825
3420,287976846.7775482
3738,26975472.43841352
2,4, 1, 4, 0,15, 0.00,60.00,Wednesday
135,272696237.8059352
3420,272696237.80593514
3738,20161422.34480528
2,4, 1, 4, 0,16, 0.00,60.00,Wednesday
135,272161785.2646703
3420,272161785.26467025
3738,16915865.42778681
2,4, 1, 4, 0,17, 0.00,60.00,Wednesday
135,291731297.1951754
3420,291731297.1951754
3738,37901489.968598045
2,4, 1, 4, 0,18, 0.00,60.00,Wednesday
135,250496636.8458358
3420,250496636.8458358
3738,48823281.85533792
2,4, 1, 4, 0,19, 0.00,60.00,Wednesday
135,131336689.68055287
3420,131336689.68055287
3738,83831754.04902327
2,4, 1, 4, 0,20, 0.00,60.00,Wednesday
135,113569604.38930234
3420,113569604.38930234
3738,99317409.99233955
2,4, 1, 4, 0,21, 0.00,60.00,Wednesday
135,105220124.3887882
3420,105220124.38878822
3738,113589845.33559957
2,4, 1, 4, 0,22, 0.00,60.00,Wednesday
135,104273921.33650355
3420,104273921.33650358
3738,125221165.591502
2,4, 1, 4, 0,23, 0.00,60.00,Wednesday
135,77772390.65670998
3420,77772390.65670998
3738,6791184.0
2,4, 1, 4, 0,24, 0.00,60.00,Wednesday
135,72442274.24247962
3420,72442274.24247962
3738,6791184.0
2,5, 1, 5, 0, 1, 0.00,60.00,Thursday
135,57996196.7332391
3420,57996196.7332391
3738,6791184.0
2,5, 1, 5, 0, 2, 0.00,60.00,Thursday
135,57609860.1137362
3420,57609860.1137362
3738,6791184.0
2,5, 1, 5, 0, 3, 0.00,60.00,Thursday
135,57609860.1137362
3420,57609860.1137362
3738,6791184.0
2,5, 1, 5, 0, 4, 0.00,60.00,Thursday
135,57609860.1137362
3420,57609860.1137362
3738,6791184.0
2,5, 1, 5, 0, 5, 0.00,60.00,Thursday
135,57609860.1137362
3420,57609860.1137362
3738,6791184.0
2,5, 1, 5, 0, 6, 0.00,60.00,Thursday
135,57609860.1137362
3420,57609860.1137362
3738,6791184.0
2,5, 1, 5, 0, 7, 0.00,60.00,Thursday
135,115461683.74104877
3420,115461683.74104875
3738,6791184.0
2,5, 1, 5, 0, 8, 0.00,60.00,Thursday
135,201905055.99348867
3420,201905055.9934887
3738,186282725.8368771
2,5, 1, 5, 0, 9, 0.00,60.00,Thursday
135,311613209.8566508
3420,311613209.8566508
3738,109848617.92367579
2,5, 1, 5, 0,10, 0.00,60.00,Thursday
135,271222454.5756533
3420,271222454.5756533
3738,67404349.57374503
2,5, 1, 5, 0,11, 0.00,60.00,Thursday
135,267955833.8087221
3420,267955833.8087221
3738,35892869.27081212
2,5, 1, 5, 0,12, 0.00,60.00,Thursday
135,283681695.96931905
3420,283681695.96931905
3738,25070138.279183887
2,5, 1, 5, 0,13, 0.00,60.00,Thursday
135,286558463.5276588
3420,286558463.5276588
3738,31298498.85110893
2,5, 1, 5, 0,14, 0.00,60.00,Thursday
135,297899747.37948066
3420,297899747.37948066
3738,26198971.575834565
2,5, 1, 5, 0,15, 0.00,60.00,Thursday
135,286041077.74397093
3420,286041077.7439709
3738,20157381.564863984
2,5, 1, 5, 0,16, 0.00,60.00,Thursday
135,289521201.6142991
3420,289521201.61429906
3738,15641677.218474206
2,5, 1, 5, 0,17, 0.00,60.00,Thursday
135,301731102.79772586
3420,301731102.79772586
3738,25322331.753431857
2,5, 1, 5, 0,18, 0.00,60.00,Thursday
135,250706022.3081881
3420,250706022.3081881
3738,40859119.49667567
2,5, 1, 5, 0,19, 0.00,60.00,Thursday
135,131146409.5558288
3420,131146409.55582878
3738,81172390.284628
2,5, 1, 5, 0,20, 0.00,60.00,Thursday
135,114451648.16950212
3420,114451648.16950212
3738,108687813.6476763
2,5, 1, 5, 0,21, 0.00,60.00,Thursday
135,106988757.39276695
3420,106988757.39276697
3738,121196096.83967946
2,5, 1, 5, 0,22, 0.00,60.00,Thursday
135,107013365.36889967
3420,107013365.3688997
3738,135807150.85678917
2,5, 1, 5, 0,23, 0.00,60.00,Thursday
135,77772390.65670998
3420,77772390.65670998
3738,6791184.0
2,5, 1, 5, 0,24, 0.00,60.00,Thursday
135,72442274.24247962
3420,72442274.24247962
3738,6791184.0
2,6, 1, 6, 0, 1, 0.00,60.00,Friday
135,57996196.7332391
3420,57996196.7332391
3738,6791184.0
2,6, 1, 6, 0, 2, 0.00,60.00,Friday
135,57609860.1137362
3420,57609860.1137362
3738,6791184.0
2,6, 1, 6, 0, 3, 0.00,60.00,Friday
135,57609860.1137362
3420,57609860.1137362
3738,6791184.0
2,6, 1, 6, 0, 4, 0.00,60.00,Friday
135,57609860.1137362
3420,57609860.1137362
3738,6791184.0
2,6, 1, 6, 0, 5, 0.00,60.00,Friday
135,57609860.1137362
3420,57609860.1137362
3738,6791184.0
2,6, 1, 6, 0, 6, 0.00,60.00,Friday
135,57609860.1137362
3420,57609860.1137362
3738,6791184.0
2,6, 1, 6, 0, 7, 0.00,60.00,Friday
135,131200960.97587079
3420,131200960.97587079
3738,6791184.0
2,6, 1, 6, 0, 8, 0.00,60.00,Friday
135,231122628.68319848
3420,231122628.68319848
3738,197880885.53625223
2,6, 1, 6, 0, 9, 0.00,60.00,Friday
135,332975970.9697046
3420,332975970.9697045
3738,146277602.6666301
2,6, 1, 6, 0,10, 0.00,60.00,Friday
135,282168708.23021984
3420,282168708.23021984
3738,147316036.11957115
2,6, 1, 6, 0,11, 0.00,60.00,Friday
135,262942318.26303023
3420,262942318.26303023
3738,131469474.20728455
2,6, 1, 6, 0,12, 0.00,60.00,Friday
135,268643735.0637701
3420,268643735.0637701
3738,112541962.20007518
2,6, 1, 6, 0,13, 0.00,60.00,Friday
135,289857795.94138646
3420,289857795.94138634
3738,77683764.65748283
2,6, 1, 6, 0,14, 0.00,60.00,Friday
135,286574500.8601079
3420,286574500.86010796
3738,43144853.432570264
2,6, 1, 6, 0,15, 0.00,60.00,Friday
135,275260777.3487783
3420,275260777.34877825
3738,18225153.206951812
2,6, 1, 6, 0,16, 0.00,60.00,Friday
135,277909283.5738458
3420,277909283.5738458
3738,23866852.560656823
2,6, 1, 6, 0,17, 0.00,60.00,Friday
135,287721198.0388111
3420,287721198.0388111
3738,61961476.7724644
2,6, 1, 6, 0,18, 0.00,60.00,Friday
135,244136237.88513052
3420,244136237.88513058
3738,99206090.78602314
2,6, 1, 6, 0,19, 0.00,60.00,Friday
135,138518307.1325001
3420,138518307.1325001
3738,147660093.13343933
2,6, 1, 6, 0,20, 0.00,60.00,Friday
135,123962095.20801061
3420,123962095.20801061
3738,148296048.07754427
2,6, 1, 6, 0,21, 0.00,60.00,Friday
135,120129803.00669062
3420,120129803.00669062
3738,163507716.9263023
2,6, 1, 6, 0,22, 0.00,60.00,Friday
135,119462979.29072024
3420,119462979.29072024
3738,159683921.68081984
2,6, 1, 6, 0,23, 0.00,60.00,Friday
135,77772390.65670998
3420,77772390.65670998
3738,6791184.0
2,6, 1, 6, 0,24, 0.00,60.00,Friday
135,72442274.24247962
3420,72442274.24247962
3738,6791184.0
2,7, 1, 7, 0, 1, 0.00,60.00,Saturday
135,46745513.81922844
3420,46745513.81922843
3738,6791184.0
2,7, 1, 7, 0, 2, 0.00,60.00,Saturday
135,46359235.70955593
3420,46359235.709555924
3738,6791184.0
2,7, 1, 7, 0, 3, 0.00,60.00,Saturday
135,46359235.70955593
3420,46359235.709555924
3738,6791184.0
2,7, 1, 7, 0, 4, 0.00,60.00,Saturday
135,46359235.70955593
3420,46359235.709555924
3738,6791184.0
2,7, 1, 7, 0, 5, 0.00,60.00,Saturday
135,46359235.70955593
3420,46359235.709555924
3738,6791184.0
2,7, 1, 7, 0, 6, 0.00,60.00,Saturday
135,46359235.70955593
3420,46359235.709555924
3738,6791184.0
2,7, 1, 7, 0, 7, 0.00,60.00,Saturday
135,142129367.6518525
3420,142129367.6518525
3738,6791184.0
2,7, 1, 7, 0, 8, 0.00,60.00,Saturday
135,183787964.81919712
3420,183787964.81919712
3738,180577316.13518113
2,7, 1, 7, 0, 9, 0.00,60.00,Saturday
135,154873200.3700333
3420,154873200.37003326
3738,164495861.6219035
2,7, 1, 7, 0,10, 0.00,60.00,Saturday
135,149428730.89816007
3420,149428730.89816004
3738,152647293.0010512
2,7, 1, 7, 0,11, 0.00,60.00,Saturday
135,136481073.80590588
3420,136481073.80590588
3738,123493745.55485551
2,7, 1, 7, 0,12, 0.00,60.00,Saturday
135,139739886.54396856
3420,139739886.54396856
3738,91283988.7923118
2,7, 1, 7, 0,13, 0.00,60.00,Saturday
135,99567287.34906119
3420,99567287.34906118
3738,69372569.56860377
2,7, 1, 7, 0,14, 0.00,60.00,Saturday
135,89183650.87348978
3420,89183650.87348978
3738,66385647.14274216
2,7, 1, 7, 0,15, 0.00,60.00,Saturday
135,83025218.47519791
3420,83025218.47519791
3738,62159960.11176965
2,7, 1, 7, 0,16, 0.00,60.00,Saturday
135,81071871.41896796
3420,81071871.41896798
3738,67001058.90517485
2,7, 1, 7, 0,17, 0.00,60.00,Saturday
135,87924557.27436198
3420,87924557.27436201
3738,73973337.5881556
2,7, 1, 7, 0,18, 0.00,60.00,Saturday
135,83077160.33306564
3420,83077160.33306564
3738,85573558.8674905
2,7, 1, 7, 0,19, 0.00,60.00,Saturday
135,66276703.53612528
3420,66276703.53612528
3738,6791184.0
2,7, 1, 7, 0,20, 0.00,60.00,Saturday
135,49290893.81922844
3420,49290893.81922844
3738,6791184.0
2,7, 1, 7, 0,21, 0.00,60.00,Saturday
135,48904615.70955593
3420,48904615.70955593
3738,6791184.0
2,7, 1, 7, 0,22, 0.00,60.00,Saturday
135,48904615.70955593
3420,48904615.70955593
3738,6791184.0
2,7, 1, 7, 0,23, 0.00,60.00,Saturday
135,48904615.70955593
3420,48904615.70955593
3738,6791184.0
2,7, 1, 7, 0,24, 0.00,60.00,Saturday
135,48904615.70955593
3420,48904615.70955593
3738,6791184.0
2,8, 1, 8, 0, 1, 0.00,60.00,Sunday
135,46359235.70955593
3420,46359235.709555924
3738,6791184.0
2,8, 1, 8, 0, 2, 0.00,60.00,Sunday
135,46359235.70955593
3420,46359235.709555924
3738,6791184.0
2,8, 1, 8, 0, 3, 0.00,60.00,Sunday
135,46359235.70955593
3420,46359235.709555924
3738,6791184.0
2,8, 1, 8, 0, 4, 0.00,60.00,Sunday
135,46359235.70955593
3420,46359235.709555924
3738,6791184.0
2,8, 1, 8, 0, 5, 0.00,60.00,Sunday
135,46359235.70955593
3420,46359235.709555924
3738,6791184.0
2,8, 1, 8, 0, 6, 0.00,60.00,Sunday
135,46359235.70955593
3420,46359235.709555924
3738,6791184.0
2,8, 1, 8, 0, 7, 0.00,60.00,Sunday
135,66032185.73006148
3420,66032185.73006148
3738,6791184.0
2,8, 1, 8, 0, 8, 0.00,60.00,Sunday
135,53323580.330645084
3420,53323580.330645084
3738,6791184.0
2,8, 1, 8, 0, 9, 0.00,60.00,Sunday
135,46344166.24829911
3420,46344166.24829911
3738,6791184.0
2,8, 1, 8, 0,10, 0.00,60.00,Sunday
135,46288812.51597283
3420,46288812.51597283
3738,6791184.0
2,8, 1, 8, 0,11, 0.00,60.00,Sunday
135,46288812.51597283
3420,46288812.51597283
3738,6791184.0
2,8, 1, 8, 0,12, 0.00,60.00,Sunday
135,48740160.323144645
3420,48740160.323144645
3738,6791184.0
2,8, 1, 8, 0,13, 0.00,60.00,Sunday
135,52929932.292962514
3420,52929932.29296251
3738,6791184.0
2,8, 1, 8, 0,14, 0.00,60.00,Sunday
135,54748295.02318915
3420,54748295.02318917
3738,6791184.0
2,8, 1, 8, 0,15, 0.00,60.00,Sunday
135,53085126.57114217
3420,53085126.57114217
3738,6791184.0
2,8, 1, 8, 0,16, 0.00,60.00,Sunday
135,55964243.709765166
3420,55964243.70976516
3738,6791184.0
2,8, 1, 8, 0,17, 0.00,60.00,Sunday
135,47064309.25828083
3420,47064309.25828083
3738,6791184.0
2,8, 1, 8, 0,18, 0.00,60.00,Sunday
135,66276671.30593526
3420,66276671.30593526
3738,6791184.0
2,8, 1, 8, 0,19, 0.00,60.00,Sunday
135,57105773.81922845
3420,57105773.81922844
3738,6791184.0
2,8, 1, 8, 0,20, 0.00,60.00,Sunday
135,48904615.70955593
3420,48904615.70955593
3738,6791184.0
2,8, 1, 8, 0,21, 0.00,60.00,Sunday
135,48904615.70955593
3420,48904615.70955593
3738,6791184.0
2,8, 1, 8, 0,22, 0.00,60.00,Sunday
135,48904615.70955593
3420,48904615.70955593
3738,6791184.0
2,8, 1, 8, 0,23, 0.00,60.00,Sunday
135,48904615.70955593
3420,48904615.70955593
3738,6791184.0
2,8, 1, 8, 0,24, 0.00,60.00,Sunday
135,48904615.70955593
3420,48904615.70955593
3738,6791184.0
2,9, 1, 9, 0, 1, 0.00,60.00,Monday
135,57609860.1137362
3420,57609860.1137362
3738,6791184.0
2,9, 1, 9, 0, 2, 0.00,60.00,Monday
135,57609860.1137362
3420,57609860.1137362
3738,6791184.0
2,9, 1, 9, 0, 3, 0.00,60.00,Monday
135,57609860.1137362
3420,57609860.1137362
3738,6791184.0
2,9, 1, 9, 0, 4, 0.00,60.00,Monday
135,57609860.1137362
3420,57609860.1137362
3738,6791184.0
2,9, 1, 9, 0, 5, 0.00,60.00,Monday
135,57609860.1137362
3420,57609860.1137362
3738,6791184.0
2,9, 1, 9, 0, 6, 0.00,60.00,Monday
135,57609860.1137362
3420,57609860.1137362
3738,6791184.0
2,9, 1, 9, 0, 7, 0.00,60.00,Monday
135,143538030.63175896
3420,143538030.63175896
3738,6791184.0
2,9, 1, 9, 0, 8, 0.00,60.00,Monday
135,236531638.3060758
3420,236531638.3060758
3738,130569210.48291095
2,9, 1, 9, 0, 9, 0.00,60.00,Monday
135,316692598.9616227
3420,316692598.96162266
3738,79587978.49544698
2,9, 1, 9, 0,10, 0.00,60.00,Monday
135,273427368.0479132
3420,273427368.04791313
3738,54791356.32970085
2,9, 1, 9, 0,11, 0.00,60.00,Monday
135,267313225.7599819
3420,267313225.7599819
3738,20775891.433500767
2,9, 1, 9, 0,12, 0.00,60.00,Monday
135,281876040.91873944
3420,281876040.91873944
3738,20903837.474793598
2,9, 1, 9, 0,13, 0.00,60.00,Monday
135,282710355.8739703
3420,282710355.8739703
3738,31355572.012768798
2,9, 1, 9, 0,14, 0.00,60.00,Monday
135,297172672.2812873
3420,297172672.2812873
3738,26217242.932466544
2,9, 1, 9, 0,15, 0.00,60.00,Monday
135,291839282.1881516
3420,291839282.18815154
3738,20171223.857765786
2,9, 1, 9, 0,16, 0.00,60.00,Monday
135,299497322.34068805
3420,299497322.340688
3738,15658103.305222496
2,9, 1, 9, 0,17, 0.00,60.00,Monday
135,307567946.3105037
3420,307567946.3105038
3738,25336597.428947877
2,9, 1, 9, 0,18, 0.00,60.00,Monday
135,239355040.94244343
3420,239355040.94244343
3738,11633140.017214231
2,9, 1, 9, 0,19, 0.00,60.00,Monday
135,131781432.04669741
3420,131781432.04669741
3738,28401860.285898857
2,9, 1, 9, 0,20, 0.00,60.00,Monday
135,114950661.0150311
3420,114950661.0150311
3738,37184030.384319745
2,9, 1, 9, 0,21, 0.00,60.00,Monday
135,105940291.9325522
3420,105940291.93255222
3738,27966324.468574964
2,9, 1, 9, 0,22, 0.00,60.00,Monday
135,103103895.19224977
3420,103103895.19224979
3738,33302492.073760413
2,9, 1, 9, 0,23, 0.00,60.00,Monday
135,77772390.65670998
3420,77772390.65670998
3738,6791184.0
2,9, 1, 9, 0,24, 0.00,60.00,Monday
135,72442274.24247962
3420,72442274.24247962
3738,6791184.0
2,10, 1,10, 0, 1, 0.00,60.00,Tuesday
135,57996196.7332391
3420,57996196.7332391
3738,6791184.0
2,10, 1,10, 0, 2, 0.00,60.00,Tuesday
135,57609860.1137362
3420,57609860.1137362
3738,6791184.0
2,10, 1,10, 0, 3, 0.00,60.00,Tuesday
135,57609860.1137362
3420,57609860.1137362
3738,6791184.0
2,10, 1,10, 0, 4, 0.00,60.00,Tuesday
135,57609860.1137362
3420,57609860.1137362
3738,6791184.0
2,10, 1,10, 0, 5, 0.00,60.00,Tuesday
135,57609860.1137362
3420,57609860.1137362
3738,6791184.0
2,10, 1,10, 0, 6, 0.00,60.00,Tuesday
135,57609860.1137362
3420,57609860.1137362
3738,6791184.0
2,10, 1,10, 0, 7, 0.00,60.00,Tuesday
135,111567553.8344954
3420,111567553.8344954
3738,6791184.0
2,10, 1,10, 0, 8, 0.00,60.00,Tuesday
135,191960561.94212762
3420,191960561.94212762
3738,104843869.17649575
2,10, 1,10, 0, 9, 0.00,60.00,Tuesday
135,309233740.4451835
3420,309233740.4451835
3738,63428122.15394811
2,10, 1,10, 0,10, 0.00,60.00,Tuesday
135,272502476.9918438
3420,272502476.9918438
3738,37153864.42216041
2,10, 1,10, 0,11, 0.00,60.00,Tuesday
135,265832361.57280928
3420,265832361.57280928
3738,24426340.272391934
2,10, 1,10, 0,12, 0.00,60.00,Tuesday
135,275949053.89739066
3420,275949053.8973906
3738,31100703.362647325
2,10, 1,10, 0,13, 0.00,60.00,Tuesday
135,283038441.61060965
3420,283038441.61060965
3738,26596663.557589084
2,10, 1,10, 0,14, 0.00,60.00,Tuesday
135,293587920.629416
3420,293587920.629416
3738,30967109.537617713
2,10, 1,10, 0,15, 0.00,60.00,Tuesday
135,294277133.3385973
3420,294277133.3385973
3738,15793378.786457643
2,10, 1,10, 0,16, 0.00,60.00,Tuesday
135,300129773.0448115
3420,300129773.04481137
3738,17741745.788561705
2,10, 1,10, 0,17, 0.00,60.00,Tuesday
135,301824062.0354215
3420,301824062.03542143
3738,23162527.102010816
2,10, 1,10, 0,18, 0.00,60.00,Tuesday
135,243799765.71542293
3420,243799765.71542293
3738,15880222.506651925
2,10, 1,10, 0,19, 0.00,60.00,Tuesday
135,132016018.22444141
3420,132016018.22444141
3738,36584651.8858148
2,10, 1,10, 0,20, 0.00,60.00,Tuesday
135,113569604.38930234
3420,113569604.38930234
3738,46635436.076661445
2,10, 1,10, 0,21, 0.00,60.00,Tuesday
135,103060946.4394037
3420,103060946.4394037
3738,63344060.59444164
2,10, 1,10, 0,22, 0.00,60.00,Tuesday
135,100523620.59756058
3420,100523620.59756061
3738,83781856.65894978
2,10, 1,10, 0,23, 0.00,60.00,Tuesday
135,77772390.65670998
3420,77772390.65670998
3738,6791184.0
2,10, 1,10, 0,24, 0.00,60.00,Tuesday
135,72442274.24247962
3420,72442274.24247962
3738,6791184.0
2,11, 1,11, 0, 1, 0.00,60.00,Wednesday
135,57996196.7332391
3420,57996196.7332391
3738,6791184.0
2,11, 1,11, 0, 2, 0.00,60.00,Wednesday
135,57609860.1137362
3420,57609860.1137362
3738,6791184.0
2,11, 1,11, 0, 3, 0.00,60.00,Wednesday
135,57609860.1137362
3420,57609860.1137362
3738,6791184.0
2,11, 1,11, 0, 4, 0.00,60.00,Wednesday
135,57609860.1137362
3420,57609860.1137362
3738,6791184.0
2,11, 1,11, 0, 5, 0.00,60.00,Wednesday
135,57609860.1137362
3420,57609860.1137362
3738,6791184.0
2,11, 1,11, 0, 6, 0.00,60.00,Wednesday
135,57609860.1137362
3420,57609860.1137362
3738,6791184.0
2,11, 1,11, 0, 7, 0.00,60.00,Wednesday
135,103655449.89012198
3420,103655449.890122
3738,6791184.0
2,11, 1,11, 0, 8, 0.00,60.00,Wednesday
135,178700650.53261966
3420,178700650.53261966
3738,57714524.45642253
2,11, 1,11, 0, 9, 0.00,60.00,Wednesday
135,300962866.6234902
3420,300962866.62349015
3738,37587996.65620267
2,11, 1,11, 0,10, 0.00,60.00,Wednesday
135,267528858.37179965
3420,267528858.3717996
3738,17499037.36394432
2,11, 1,11, 0,11, 0.00,60.00,Wednesday
135,261943205.64108247
3420,261943205.64108244
3738,7001273.978449786
2,11, 1,11, 0,12, 0.00,60.00,Wednesday
135,269808012.7164724
3420,269808012.7164724
3738,25582340.129204303
2,11, 1,11, 0,13, 0.00,60.00,Wednesday
135,269563586.6524916
3420,269563586.65249157
3738,31414160.581330597
2,11, 1,11, 0,14, 0.00,60.00,Wednesday
135,272811967.20322037
3420,272811967.20322037
3738,26221928.49027473
2,11, 1,11, 0,15, 0.00,60.00,Wednesday
135,259130806.91711652
3420,259130806.91711646
3738,20138465.3739046
2,11, 1,11, 0,16, 0.00,60.00,Wednesday
135,259940151.94726685
3420,259940151.94726682
3738,15655492.689499406
2,11, 1,11, 0,17, 0.00,60.00,Wednesday
135,277426679.414384
3420,277426679.414384
3738,28325595.282518372
2,11, 1,11, 0,18, 0.00,60.00,Wednesday
135,241304317.17524722
3420,241304317.17524725
3738,36823957.83281642
2,11, 1,11, 0,19, 0.00,60.00,Wednesday
135,131421645.9666979
3420,131421645.9666979
3738,56499632.09298052
2,11, 1,11, 0,20, 0.00,60.00,Wednesday
135,113569604.38930234
3420,113569604.38930234
3738,72291085.37643926
2,11, 1,11, 0,21, 0.00,60.00,Wednesday
135,102966566.33100766
3420,102966566.33100766
3738,77488767.20867093
2,11, 1,11, 0,22, 0.00,60.00,Wednesday
135,99593506.14582235
3420,99593506.14582236
3738,93309489.93145582
2,11, 1,11, 0,23, 0.00,60.00,Wednesday
135,77772390.65670998
3420,77772390.65670998
3738,6791184.0
2,11, 1,11, 0,24, 0.00,60.00,Wednesday
135,72442274.24247962
3420,72442274.24247962
3738,6791184.0
2,12, 1,12, 0, 1, 0.00,60.00,Thursday
135,57996196.7332391
3420,57996196.7332391
3738,6791184.0
2,12, 1,12, 0, 2, 0.00,60.00,Thursday
135,57609860.1137362
3420,57609860.1137362
3738,6791184.0
2,12, 1,12, 0, 3, 0.00,60.00,Thursday
135,57609860.1137362
3420,57609860.1137362
3738,6791184.0
2,12, 1,12, 0, 4, 0.00,60.00,Thursday
135,57609860.1137362
3420,57609860.1137362
3738,6791184.0
2,12, 1,12, 0, 5, 0.00,60.00,Thursday
135,57609860.1137362
3420,57609860.1137362
3738,6791184.0
2,12, 1,12, 0, 6, 0.00,60.00,Thursday
135,57609860.1137362
3420,57609860.1137362
3738,6791184.0
2,12, 1,12, 0, 7, 0.00,60.00,Thursday
135,107406436.74009183
3420,107406436.74009183
3738,6791184.0
2,12, 1,12, 0, 8, 0.00,60.00,Thursday
135,185996557.7335231
3420,185996557.7335231
3738,131008491.72408332
2,12, 1,12, 0, 9, 0.00,60.00,Thursday
135,309468641.03920764
3420,309468641.03920764
3738,85468686.33408248
2,12, 1,12, 0,10, 0.00,60.00,Thursday
135,269428784.8243439
3420,269428784.8243439
3738,73082086.35207571
2,12, 1,12, 0,11, 0.00,60.00,Thursday
135,263458192.59122652
3420,263458192.5912265
3738,56167252.16063565
2,12, 1,12, 0,12, 0.00,60.00,Thursday
135,275622374.1439886
3420,275622374.1439886
3738,49306295.78029637
2,12, 1,12, 0,13, 0.00,60.00,Thursday
135,291748737.7472709
3420,291748737.7472708
3738,41491006.22749948
2,12, 1,12, 0,14, 0.00,60.00,Thursday
135,286443976.89510435
3420,286443976.8951044
3738,36877826.34606378
2,12, 1,12, 0,15, 0.00,60.00,Thursday
135,270841475.0424025
3420,270841475.04240245
3738,18604012.378571507
2,12, 1,12, 0,16, 0.00,60.00,Thursday
135,270665635.8867952
3420,270665635.8867952
3738,26107490.316012055
2,12, 1,12, 0,17, 0.00,60.00,Thursday
135,289239296.6711422
3420,289239296.6711422
3738,33645171.42536579
2,12, 1,12, 0,18, 0.00,60.00,Thursday
135,251004411.5848904
3420,251004411.58489043
3738,49472975.30380027
2,12, 1,12, 0,19, 0.00,60.00,Thursday
135,132120874.16792631
3420,132120874.16792628
3738,73199925.46859828
2,12, 1,12, 0,20, 0.00,60.00,Thursday
135,113569604.38930234
3420,113569604.38930234
3738,71069420.92012163
2,12, 1,12, 0,21, 0.00,60.00,Thursday
135,103393271.59194176
3420,103393271.59194176
3738,74791092.93728518
2,12, 1,12, 0,22, 0.00,60.00,Thursday
135,100335843.54777277
3420,100335843.54777277
3738,77412586.71096829
2,12, 1,12, 0,23, 0.00,60.00,Thursday
135,77772390.65670998
3420,77772390.65670998
3738,6791184.0
2,12, 1,12, 0,24, 0.00,60.00,Thursday
135,72442274.24247962
3420,72442274.24247962
3738,6791184.0
2,13, 1,13, 0, 1, 0.00,60.00,Friday
135,57996196.7332391
3420,57996196.7332391
3738,6791184.0