Program Version,EnergyPlus, Version 9.6.0-f420c06a69, YMD=2022.07.06 16:37
1,5,Environment Title[],Latitude[deg],Longitude[deg],Time Zone[],Elevation[m]
2,8,Day of Simulation[],Month[],Day of Month[],DST Indicator[1=yes 0=no],Hour[],StartMinute[],EndMinute[],DayType
3,5,Cumulative Day of Simulation[],Month[],Day of Month[],DST Indicator[1=yes 0=no],DayType  ! When Daily Meters Requested
4,2,Cumulative Days of Simulation[],Month[]  ! When Monthly Meters Requested
5,1,Cumulative Days of Simulation[] ! When Run Period Meters Requested
6,1,Calendar Year of Simulation[] ! When Annual Meters Requested
135,1,Electricity:Facility [J] !Hourly
3420,1,ElectricityNet:Facility [J] !Hourly
3738,1,NaturalGas:Facility [J] !Hourly
End of Data Dictionary
1,RUNPERIOD 1,  35.04,-106.62,  -7.00,1619.00
2,1, 1, 1, 0, 1, 0.00,60.00,Holiday
135,46359074.93593144
3420,46359074.93593143
3738,6791184.0
2,1, 1, 1, 0, 2, 0.00,60.00,Holiday
135,46359235.70955593
3420,46359235.709555924
3738,6791184.0
2,1, 1, 1, 0, 3, 0.00,60.00,Holiday
135,46359235.70955593
3420,46359235.709555924
3738,6791184.0
2,1, 1, 1, 0, 4, 0.00,60.00,Holiday
135,46359235.70955593
3420,46359235.709555924
3738,6791184.0
2,1, 1, 1, 0, 5, 0.00,60.00,Holiday
135,46359235.70955593
3420,46359235.709555924
3738,6791184.0
2,1, 1, 1, 0, 6, 0.00,60.00,Holiday
135,46359235.70955593
3420,46359235.709555924
3738,6791184.0
2,1, 1, 1, 0, 7, 0.00,60.00,Holiday
135,66032185.73006148
3420,66032185.73006148
3738,6791184.0
2,1, 1, 1, 0, 8, 0.00,60.00,Holiday
135,50074623.774579875
3420,50074623.774579875
3738,6791184.0
2,1, 1, 1, 0, 9, 0.00,60.00,Holiday
135,46351708.9331394
3420,46351708.9331394
3738,6791184.0
2,1, 1, 1, 0,10, 0.00,60.00,Holiday
135,46288813.17904917
3420,46288813.179049164
3738,6791184.0
2,1, 1, 1, 0,11, 0.00,60.00,Holiday
135,50556028.58634514
3420,50556028.58634514
3738,6791184.0
2,1, 1, 1, 0,12, 0.00,60.00,Holiday
135,53620061.07971074
3420,53620061.07971075
3738,6791184.0
2,1, 1, 1, 0,13, 0.00,60.00,Holiday
135,54251377.4482968
3420,54251377.44829681
3738,6791184.0
2,1, 1, 1, 0,14, 0.00,60.00,Holiday
135,58744815.664830714
3420,58744815.66483073
3738,6791184.0
2,1, 1, 1, 0,15, 0.00,60.00,Holiday
135,64652365.25448359
3420,64652365.25448359
3738,6791184.0
2,1, 1, 1, 0,16, 0.00,60.00,Holiday
135,62671968.53224909
3420,62671968.53224909
3738,6791184.0
2,1, 1, 1, 0,17, 0.00,60.00,Holiday
135,54610940.42094375
3420,54610940.42094375
3738,6791184.0
2,1, 1, 1, 0,18, 0.00,60.00,Holiday
135,66905826.86107348
3420,66905826.86107348
3738,6791184.0
2,1, 1, 1, 0,19, 0.00,60.00,Holiday
135,57105773.81922845
3420,57105773.81922844
3738,6791184.0
2,1, 1, 1, 0,20, 0.00,60.00,Holiday
135,48904615.70955593
3420,48904615.70955593
3738,6791184.0
2,1, 1, 1, 0,21, 0.00,60.00,Holiday
135,48904615.70955593
3420,48904615.70955593
3738,6791184.0
2,1, 1, 1, 0,22, 0.00,60.00,Holiday
135,48904615.70955593
3420,48904615.70955593
3738,6791184.0
2,1, 1, 1, 0,23, 0.00,60.00,Holiday
135,48904615.70955593
3420,48904615.70955593
3738,6791184.0
2,1, 1, 1, 0,24, 0.00,60.00,Holiday
135,48904615.70955593
3420,48904615.70955593
3738,6791184.0
2,2, 1, 2, 0, 1, 0.00,60.00,Monday
135,57609860.1137362
3420,57609860.1137362
3738,6791184.0
2,2, 1, 2, 0, 2, 0.00,60.00,Monday
135,57609860.1137362
3420,57609860.1137362
3738,6791184.0
2,2, 1, 2, 0, 3, 0.00,60.00,Monday
135,57609860.1137362
3420,57609860.1137362
3738,6791184.0
2,2, 1, 2, 0, 4, 0.00,60.00,Monday
135,57609860.1137362
3420,57609860.1137362
3738,6791184.0
2,2, 1, 2, 0, 5, 0.00,60.00,Monday
135,57609860.1137362
3420,57609860.1137362
3738,6791184.0
2,2, 1, 2, 0, 6, 0.00,60.00,Monday
135,57609860.1137362
3420,57609860.1137362
3738,6791184.0
2,2, 1, 2, 0, 7, 0.00,60.00,Monday
135,133818991.2869126
3420,133818991.28691259
3738,6791184.0
2,2, 1, 2, 0, 8, 0.00,60.00,Monday
135,223396091.10786992
3420,223396091.1078699
3738,137819151.1707379
2,2, 1, 2, 0, 9, 0.00,60.00,Monday
135,309864682.60756093
3420,309864682.60756093
3738,82932499.56728369
2,2, 1, 2, 0,10, 0.00,60.00,Monday
135,272132985.8622349
3420,272132985.8622349
3738,53469092.86666612
2,2, 1, 2, 0,11, 0.00,60.00,Monday
135,269759697.5572013
3420,269759697.5572013
3738,16144536.800962886
2,2, 1, 2, 0,12, 0.00,60.00,Monday
135,287507189.45830214
3420,287507189.45830214
3738,20876796.860734195
2,2, 1, 2, 0,13, 0.00,60.00,Monday
135,284331304.8653462
3420,284331304.8653462
3738,31334406.839406762
2,2, 1, 2, 0,14, 0.00,60.00,Monday
135,301414316.14410216
3420,301414316.1441021
3738,26165958.375468567
2,2, 1, 2, 0,15, 0.00,60.00,Monday
135,294357914.8854983
3420,294357914.8854982
3738,16620824.952096859
2,2, 1, 2, 0,16, 0.00,60.00,Monday
135,299530681.737796
3420,299530681.7377959
3738,19119791.800754312
2,2, 1, 2, 0,17, 0.00,60.00,Monday
135,300632727.8393928
3420,300632727.8393927
3738,20696650.751626894
2,2, 1, 2, 0,18, 0.00,60.00,Monday
135,237837474.91515923
3420,237837474.91515923
3738,17197343.605414655
2,2, 1, 2, 0,19, 0.00,60.00,Monday
135,131837013.02096166
3420,131837013.02096163
3738,37262958.71274125
2,2, 1, 2, 0,20, 0.00,60.00,Monday
135,114777654.37263305
3420,114777654.37263305
3738,50919013.01321682
2,2, 1, 2, 0,21, 0.00,60.00,Monday
135,105957684.52262968
3420,105957684.52262968
3738,62336065.75536027
2,2, 1, 2, 0,22, 0.00,60.00,Monday
135,102941653.23847508
3420,102941653.23847508
3738,63034895.97920917
2,2, 1, 2, 0,23, 0.00,60.00,Monday
135,77772390.65670998
3420,77772390.65670998
3738,6791184.0
2,2, 1, 2, 0,24, 0.00,60.00,Monday
135,72442274.24247962
3420,72442274.24247962
3738,6791184.0
2,3, 1, 3, 0, 1, 0.00,60.00,Tuesday
135,57996196.7332391
3420,57996196.7332391
3738,6791184.0
2,3, 1, 3, 0, 2, 0.00,60.00,Tuesday
135,57609860.1137362
3420,57609860.1137362
3738,6791184.0
2,3, 1, 3, 0, 3, 0.00,60.00,Tuesday
135,57609860.1137362
3420,57609860.1137362
3738,6791184.0
2,3, 1, 3, 0, 4, 0.00,60.00,Tuesday
135,57609860.1137362
3420,57609860.1137362
3738,6791184.0
2,3, 1, 3, 0, 5, 0.00,60.00,Tuesday
135,57609860.1137362
3420,57609860.1137362
3738,6791184.0
2,3, 1, 3, 0, 6, 0.00,60.00,Tuesday
135,57609860.1137362
3420,57609860.1137362
3738,6791184.0
2,3, 1, 3, 0, 7, 0.00,60.00,Tuesday
135,104466400.58344653
3420,104466400.58344656
3738,6791184.0
2,3, 1, 3, 0, 8, 0.00,60.00,Tuesday
135,180911243.68823177
3420,180911243.68823177
3738,97938594.99353467
2,3, 1, 3, 0, 9, 0.00,60.00,Tuesday
135,303547504.1672163
3420,303547504.1672162
3738,52555196.71197142
2,3, 1, 3, 0,10, 0.00,60.00,Tuesday
135,269880778.10649043
3420,269880778.10649043
3738,14742426.048936574
2,3, 1, 3, 0,11, 0.00,60.00,Tuesday
135,263560765.05002642
3420,263560765.0500264
3738,8929592.330278875
2,3, 1, 3, 0,12, 0.00,60.00,Tuesday
135,275315792.28023523
3420,275315792.28023523
3738,23350344.059654266
2,3, 1, 3, 0,13, 0.00,60.00,Tuesday
135,293032626.87056965
3420,293032626.8705696
3738,31313613.109584093
2,3, 1, 3, 0,14, 0.00,60.00,Tuesday
135,314408541.78645134
3420,314408541.78645134
3738,26174194.37937987
2,3, 1, 3, 0,15, 0.00,60.00,Tuesday
135,310672774.7196944
3420,310672774.7196944
3738,20135035.468133524
2,3, 1, 3, 0,16, 0.00,60.00,Tuesday
135,314776159.32717234
3420,314776159.3271723
3738,15642634.47603242
2,3, 1, 3, 0,17, 0.00,60.00,Tuesday
135,311223204.3810223
3420,311223204.3810222
3738,20900267.95561875
2,3, 1, 3, 0,18, 0.00,60.00,Tuesday
135,230746052.73171225
3420,230746052.73171222
3738,15250301.2699084
2,3, 1, 3, 0,19, 0.00,60.00,Tuesday
135,130677395.42981294
3420,130677395.42981294
3738,11179337.399070136
2,3, 1, 3, 0,20, 0.00,60.00,Tuesday
135,113569604.38930234
3420,113569604.38930234
3738,17215369.903012652
2,3, 1, 3, 0,21, 0.00,60.00,Tuesday
135,102910895.06207252
3420,102910895.06207252
3738,21872363.564080756
2,3, 1, 3, 0,22, 0.00,60.00,Tuesday
135,98267997.61519502
3420,98267997.61519504
3738,51203807.94121434
2,3, 1, 3, 0,23, 0.00,60.00,Tuesday
135,77772390.65670998
3420,77772390.65670998
3738,6791184.0
2,3, 1, 3, 0,24, 0.00,60.00,Tuesday
135,72442274.24247962
3420,72442274.24247962
3738,6791184.0
2,4, 1, 4, 0, 1, 0.00,60.00,Wednesday
135,57996196.7332391
3420,57996196.7332391
3738,6791184.0
2,4, 1, 4, 0, 2, 0.00,60.00,Wednesday
135,57609860.1137362
3420,57609860.1137362
3738,6791184.0
2,4, 1, 4, 0, 3, 0.00,60.00,Wednesday
135,57609860.1137362
3420,57609860.1137362
3738,6791184.0
2,4, 1, 4, 0, 4, 0.00,60.00,Wednesday
135,57609860.1137362
3420,57609860.1137362
3738,6791184.0
2,4, 1, 4, 0, 5, 0.00,60.00,Wednesday
135,57609860.1137362
3420,57609860.1137362
3738,6791184.0
2,4, 1, 4, 0, 6, 0.00,60.00,Wednesday
135,57609860.1137362
3420,57609860.1137362
3738,6791184.0
2,4, 1, 4, 0, 7, 0.00,60.00,Wednesday
135,96043665.23086846
3420,96043665.23086846
3738,6791184.0
2,4, 1, 4, 0, 8, 0.00,60.00,Wednesday
135,173673212.85227954
3420,173673212.85227954
3738,97429637.97246905
2,4, 1, 4, 0, 9, 0.00,60.00,Wednesday
135,300320845.0890142
3420,300320845.0890142
3738,56221299.28700077
2,4, 1, 4, 0,10, 0.00,60.00,Wednesday
135,266103141.58225015
3420,266103141.58225012
3738,26501116.289389167
2,4, 1, 4, 0,11, 0.00,60.00,Wednesday
135,258919360.11908242
3420,258919360.11908236
3738,13751314.661343182
2,4, 1, 4, 0,12, 0.00,60.00,Wednesday
135,270164025.04132724
3420,270164025.0413272
3738,20883369.454501543
2,4, 1, 4, 0,13, 0.00,60.00,Wednesday
135,287432226.7521373
3420,287432226.7521373
3738,31308478.55515559
2,4, 1, 4, 0,14, 0.00,60.00,Wednesday
135,303774905.91556686
3420,303774905.91556686
3738,26184636.400346145
2,4, 1, 4, 0,15, 0.00,60.00,Wednesday
135,291606697.0513132
3420,291606697.05131316
3738,20150544.81835816
2,4, 1, 4, 0,16, 0.00,60.00,Wednesday
135,287173883.21747667
3420,287173883.2174766
3738,15651108.88410994
2,4, 1, 4, 0,17, 0.00,60.00,Wednesday
135,295109727.6582874
3420,295109727.6582873
3738,25316598.259159725
2,4, 1, 4, 0,18, 0.00,60.00,Wednesday
135,229534487.23576218
3420,229534487.23576218
3738,11104859.690427352
2,4, 1, 4, 0,19, 0.00,60.00,Wednesday
135,130697367.32145265
3420,130697367.32145265
3738,11014461.324554991
2,4, 1, 4, 0,20, 0.00,60.00,Wednesday
135,113569604.38930234
3420,113569604.38930234
3738,10917262.839909453
2,4, 1, 4, 0,21, 0.00,60.00,Wednesday
135,102910895.06207252
3420,102910895.06207252
3738,13856989.638813373
2,4, 1, 4, 0,22, 0.00,60.00,Wednesday
135,98267997.61519502
3420,98267997.61519504
3738,22238063.40933619
2,4, 1, 4, 0,23, 0.00,60.00,Wednesday
135,77772390.65670998
3420,77772390.65670998
3738,6791184.0
2,4, 1, 4, 0,24, 0.00,60.00,Wednesday
135,72442274.24247962
3420,72442274.24247962
3738,6791184.0
2,5, 1, 5, 0, 1, 0.00,60.00,Thursday
135,57996196.7332391
3420,57996196.7332391
3738,6791184.0
2,5, 1, 5, 0, 2, 0.00,60.00,Thursday
135,57609860.1137362
3420,57609860.1137362
3738,6791184.0
2,5, 1, 5, 0, 3, 0.00,60.00,Thursday
135,57609860.1137362
3420,57609860.1137362
3738,6791184.0
2,5, 1, 5, 0, 4, 0.00,60.00,Thursday
135,57609860.1137362
3420,57609860.1137362
3738,6791184.0
2,5, 1, 5, 0, 5, 0.00,60.00,Thursday
135,57609860.1137362
3420,57609860.1137362
3738,6791184.0
2,5, 1, 5, 0, 6, 0.00,60.00,Thursday
135,57609860.1137362
3420,57609860.1137362
3738,6791184.0
2,5, 1, 5, 0, 7, 0.00,60.00,Thursday
135,94290155.51494788
3420,94290155.51494788
3738,6791184.0
2,5, 1, 5, 0, 8, 0.00,60.00,Thursday
135,161210599.63320208
3420,161210599.63320208
3738,56844093.549119875
2,5, 1, 5, 0, 9, 0.00,60.00,Thursday
135,300752263.7625854
3420,300752263.7625854
3738,26803543.48981628
2,5, 1, 5, 0,10, 0.00,60.00,Thursday
135,271237580.78796744
3420,271237580.7879674
3738,6791184.0
2,5, 1, 5, 0,11, 0.00,60.00,Thursday
135,286627824.10960716
3420,286627824.1096071
3738,11332847.42980596
2,5, 1, 5, 0,12, 0.00,60.00,Thursday
135,308874002.4192967
3420,308874002.4192966
3738,20890583.290418435
2,5, 1, 5, 0,13, 0.00,60.00,Thursday
135,316827538.6258729
3420,316827538.62587285
3738,31321017.96452497
2,5, 1, 5, 0,14, 0.00,60.00,Thursday
135,340667943.8871657
3420,340667943.8871657
3738,26187558.38934163
2,5, 1, 5, 0,15, 0.00,60.00,Thursday
135,335846372.2016995
3420,335846372.2016994
3738,20204783.730328184
2,5, 1, 5, 0,16, 0.00,60.00,Thursday
135,340290889.5098545
3420,340290889.50985444
3738,15641980.44949643
2,5, 1, 5, 0,17, 0.00,60.00,Thursday
135,339293197.48365974
3420,339293197.4836596
3738,25321923.367108427
2,5, 1, 5, 0,18, 0.00,60.00,Thursday
135,252240413.78270862
3420,252240413.7827086
3738,11102784.809012717
2,5, 1, 5, 0,19, 0.00,60.00,Thursday
135,135215379.67707425
3420,135215379.67707425
3738,11018122.965135034
2,5, 1, 5, 0,20, 0.00,60.00,Thursday
135,113569604.38930234
3420,113569604.38930234
3738,10929625.722144824
2,5, 1, 5, 0,21, 0.00,60.00,Thursday
135,102910895.06207252
3420,102910895.06207252
3738,6791184.0
2,5, 1, 5, 0,22, 0.00,60.00,Thursday
135,98267997.61519502
3420,98267997.61519504
3738,11472576.167015336
2,5, 1, 5, 0,23, 0.00,60.00,Thursday
135,77772390.65670998
3420,77772390.65670998
3738,6791184.0
2,5, 1, 5, 0,24, 0.00,60.00,Thursday
135,72442274.24247962
3420,72442274.24247962
3738,6791184.0
2,6, 1, 6, 0, 1, 0.00,60.00,Friday
135,57996196.7332391
3420,57996196.7332391
3738,6791184.0
2,6, 1, 6, 0, 2, 0.00,60.00,Friday
135,57609860.1137362
3420,57609860.1137362
3738,6791184.0
2,6, 1, 6, 0, 3, 0.00,60.00,Friday
135,57609860.1137362
3420,57609860.1137362
3738,6791184.0
2,6, 1, 6, 0, 4, 0.00,60.00,Friday
135,57609860.1137362
3420,57609860.1137362
3738,6791184.0
2,6, 1, 6, 0, 5, 0.00,60.00,Friday
135,57609860.1137362
3420,57609860.1137362
3738,6791184.0
2,6, 1, 6, 0, 6, 0.00,60.00,Friday
135,57609860.1137362
3420,57609860.1137362
3738,6791184.0
2,6, 1, 6, 0, 7, 0.00,60.00,Friday
135,94290155.51494788
3420,94290155.51494788
3738,6791184.0
2,6, 1, 6, 0, 8, 0.00,60.00,Friday
135,169424321.77657863
3420,169424321.77657863
3738,62005545.72811349
2,6, 1, 6, 0, 9, 0.00,60.00,Friday
135,301728603.1271562
3420,301728603.1271562
3738,51276306.643992655
2,6, 1, 6, 0,10, 0.00,60.00,Friday
135,267230282.89302295
3420,267230282.89302292
3738,43127248.53417125
2,6, 1, 6, 0,11, 0.00,60.00,Friday
135,260263015.45029655
3420,260263015.45029646
3738,31214626.20341985
2,6, 1, 6, 0,12, 0.00,60.00,Friday
135,273054044.8255696
3420,273054044.82556957
3738,24837247.569417555
2,6, 1, 6, 0,13, 0.00,60.00,Friday
135,275691245.71086884
3420,275691245.7108688
3738,28787077.314277444
2,6, 1, 6, 0,14, 0.00,60.00,Friday
135,300474048.5557395
3420,300474048.5557395
3738,26677917.128457602
2,6, 1, 6, 0,15, 0.00,60.00,Friday
135,291315565.677196
3420,291315565.6771959
3738,19751808.825976416
2,6, 1, 6, 0,16, 0.00,60.00,Friday
135,285325472.0559943
3420,285325472.05599415
3738,15651677.802601546
2,6, 1, 6, 0,17, 0.00,60.00,Friday
135,288334136.17009443
3420,288334136.1700944
3738,25323921.76602681
2,6, 1, 6, 0,18, 0.00,60.00,Friday
135,234000349.39699718
3420,234000349.39699715
3738,18220844.205421653
2,6, 1, 6, 0,19, 0.00,60.00,Friday
135,131121799.46269238
3420,131121799.46269238
3738,34525574.95943789
2,6, 1, 6, 0,20, 0.00,60.00,Friday
135,113638902.84935343
3420,113638902.84935343
3738,33460295.830002658
2,6, 1, 6, 0,21, 0.00,60.00,Friday
135,102910895.06207252
3420,102910895.06207252
3738,52112895.83328535
2,6, 1, 6, 0,22, 0.00,60.00,Friday
135,98267997.61519502
3420,98267997.61519504
3738,52785421.02612233
2,6, 1, 6, 0,23, 0.00,60.00,Friday
135,77772390.65670998
3420,77772390.65670998
3738,6791184.0
2,6, 1, 6, 0,24, 0.00,60.00,Friday
135,72442274.24247962
3420,72442274.24247962
3738,6791184.0
2,7, 1, 7, 0, 1, 0.00,60.00,Saturday
135,46745513.81922844
3420,46745513.81922843
3738,6791184.0
2,7, 1, 7, 0, 2, 0.00,60.00,Saturday
135,46359235.70955593
3420,46359235.709555924
3738,6791184.0
2,7, 1, 7, 0, 3, 0.00,60.00,Saturday
135,46359235.70955593
3420,46359235.709555924
3738,6791184.0
2,7, 1, 7, 0, 4, 0.00,60.00,Saturday
135,46359235.70955593
3420,46359235.709555924
3738,6791184.0
2,7, 1, 7, 0, 5, 0.00,60.00,Saturday
135,46359235.70955593
3420,46359235.709555924
3738,6791184.0
2,7, 1, 7, 0, 6, 0.00,60.00,Saturday
135,46359235.70955593
3420,46359235.709555924
3738,6791184.0
2,7, 1, 7, 0, 7, 0.00,60.00,Saturday
135,98278374.92866369
3420,98278374.92866369
3738,6791184.0
2,7, 1, 7, 0, 8, 0.00,60.00,Saturday
135,117632607.03511186
3420,117632607.03511186
3738,92069929.08837318
2,7, 1, 7, 0, 9, 0.00,60.00,Saturday
135,126943006.04657878
3420,126943006.04657878
3738,74649602.84495454
2,7, 1, 7, 0,10, 0.00,60.00,Saturday
135,131694574.77825329
3420,131694574.77825326
3738,58121126.9772061
2,7, 1, 7, 0,11, 0.00,60.00,Saturday
135,128141601.24420449
3420,128141601.24420448
3738,32482426.647051852
2,7, 1, 7, 0,12, 0.00,60.00,Saturday
135,138289754.47560343
3420,138289754.47560346
3738,8436749.535024896
2,7, 1, 7, 0,13, 0.00,60.00,Saturday
135,96939225.1824185
3420,96939225.1824185
3738,6791184.0
2,7, 1, 7, 0,14, 0.00,60.00,Saturday
135,86659281.85638735
3420,86659281.85638735
3738,6791184.0
2,7, 1, 7, 0,15, 0.00,60.00,Saturday
135,80780003.79819606
3420,80780003.79819608
3738,6791184.0
2,7, 1, 7, 0,16, 0.00,60.00,Saturday
135,76233398.28453368
3420,76233398.28453368
3738,6791184.0
2,7, 1, 7, 0,17, 0.00,60.00,Saturday
135,78316963.22306694
3420,78316963.22306694
3738,8331029.875471005
2,7, 1, 7, 0,18, 0.00,60.00,Saturday
135,83077160.33306564
3420,83077160.33306564
3738,21515187.351669125
2,7, 1, 7, 0,19, 0.00,60.00,Saturday
135,66276703.53612528
3420,66276703.53612528
3738,6791184.0
2,7, 1, 7, 0,20, 0.00,60.00,Saturday
135,49290893.81922844
3420,49290893.81922844
3738,6791184.0
2,7, 1, 7, 0,21, 0.00,60.00,Saturday
135,48904615.70955593
3420,48904615.70955593
3738,6791184.0
2,7, 1, 7, 0,22, 0.00,60.00,Saturday
135,48904615.70955593
3420,48904615.70955593
3738,6791184.0
2,7, 1, 7, 0,23, 0.00,60.00,Saturday
135,48904615.70955593
3420,48904615.70955593
3738,6791184.0
2,7, 1, 7, 0,24, 0.00,60.00,Saturday
135,48904615.70955593
3420,48904615.70955593
3738,6791184.0
2,8, 1, 8, 0, 1, 0.00,60.00,Sunday
135,46359235.70955593
3420,46359235.709555924
3738,6791184.0
2,8, 1, 8, 0, 2, 0.00,60.00,Sunday
135,46359235.70955593
3420,46359235.709555924
3738,6791184.0
2,8, 1, 8, 0, 3, 0.00,60.00,Sunday
135,46359235.70955593
3420,46359235.709555924
3738,6791184.0
2,8, 1, 8, 0, 4, 0.00,60.00,Sunday
135,46359235.70955593
3420,46359235.709555924
3738,6791184.0
2,8, 1, 8, 0, 5, 0.00,60.00,Sunday
135,46359235.70955593
3420,46359235.709555924
3738,6791184.0
2,8, 1, 8, 0, 6, 0.00,60.00,Sunday
135,46359235.70955593
3420,46359235.709555924
3738,6791184.0
2,8, 1, 8, 0, 7, 0.00,60.00,Sunday
135,66032185.73006148
3420,66032185.73006148
3738,6791184.0
2,8, 1, 8, 0, 8, 0.00,60.00,Sunday
135,53323580.330645084
3420,53323580.330645084
3738,6791184.0
2,8, 1, 8, 0, 9, 0.00,60.00,Sunday
135,46344166.24829911
3420,46344166.24829911
3738,6791184.0
2,8, 1, 8, 0,10, 0.00,60.00,Sunday
135,46288812.51597283
3420,46288812.51597283
3738,6791184.0
2,8, 1, 8, 0,11, 0.00,60.00,Sunday
135,47985524.6752781
3420,47985524.6752781
3738,6791184.0
2,8, 1, 8, 0,12, 0.00,60.00,Sunday
135,53906327.25469583
3420,53906327.25469585
3738,6791184.0
2,8, 1, 8, 0,13, 0.00,60.00,Sunday
135,53692734.66878373
3420,53692734.66878374
3738,6791184.0
2,8, 1, 8, 0,14, 0.00,60.00,Sunday
135,55039054.30613547
3420,55039054.306135476
3738,6791184.0
2,8, 1, 8, 0,15, 0.00,60.00,Sunday
135,55231823.22235501
3420,55231823.22235502
3738,6791184.0
2,8, 1, 8, 0,16, 0.00,60.00,Sunday
135,56622991.88140407
3420,56622991.88140409
3738,6791184.0
2,8, 1, 8, 0,17, 0.00,60.00,Sunday
135,51973034.20674376
3420,51973034.20674376
3738,6791184.0
2,8, 1, 8, 0,18, 0.00,60.00,Sunday
135,66276671.30593526
3420,66276671.30593526
3738,6791184.0
2,8, 1, 8, 0,19, 0.00,60.00,Sunday
135,57105773.81922845
3420,57105773.81922844
3738,6791184.0
2,8, 1, 8, 0,20, 0.00,60.00,Sunday
135,48904615.70955593
3420,48904615.70955593
3738,6791184.0
2,8, 1, 8, 0,21, 0.00,60.00,Sunday
135,48904615.70955593
3420,48904615.70955593
3738,6791184.0
2,8, 1, 8, 0,22, 0.00,60.00,Sunday
135,48904615.70955593
3420,48904615.70955593
3738,6791184.0
2,8, 1, 8, 0,23, 0.00,60.00,Sunday
135,48904615.70955593
3420,48904615.70955593
3738,6791184.0
2,8, 1, 8, 0,24, 0.00,60.00,Sunday
135,48904615.70955593
3420,48904615.70955593
3738,6791184.0
2,9, 1, 9, 0, 1, 0.00,60.00,Monday
135,57609860.1137362
3420,57609860.1137362
3738,6791184.0
2,9, 1, 9, 0, 2, 0.00,60.00,Monday
135,57609860.1137362
3420,57609860.1137362
3738,6791184.0
2,9, 1, 9, 0, 3, 0.00,60.00,Monday
135,57609860.1137362
3420,57609860.1137362
3738,6791184.0
2,9, 1, 9, 0, 4, 0.00,60.00,Monday
135,57609860.1137362
3420,57609860.1137362
3738,6791184.0
2,9, 1, 9, 0, 5, 0.00,60.00,Monday
135,57609860.1137362
3420,57609860.1137362
3738,6791184.0
2,9, 1, 9, 0, 6, 0.00,60.00,Monday
135,57609860.1137362
3420,57609860.1137362
3738,6791184.0
2,9, 1, 9, 0, 7, 0.00,60.00,Monday
135,118414024.87044084
3420,118414024.87044084
3738,6791184.0
2,9, 1, 9, 0, 8, 0.00,60.00,Monday
135,200876298.842876
3420,200876298.842876
3738,134012807.57635522
2,9, 1, 9, 0, 9, 0.00,60.00,Monday
135,314622171.5516279
3420,314622171.5516279
3738,80965289.8336259
2,9, 1, 9, 0,10, 0.00,60.00,Monday
135,276882264.7863577
3420,276882264.78635764
3738,49756154.646483
2,9, 1, 9, 0,11, 0.00,60.00,Monday
135,274733949.86898655
3420,274733949.86898655
3738,15758086.388872325
2,9, 1, 9, 0,12, 0.00,60.00,Monday
135,292840058.36617947
3420,292840058.3661794
3738,20903864.88774923
2,9, 1, 9, 0,13, 0.00,60.00,Monday
135,293570141.5763802
3420,293570141.57638013
3738,31355575.04472123
2,9, 1, 9, 0,14, 0.00,60.00,Monday
135,310808158.54833233
3420,310808158.54833233
3738,26214340.67840233
2,9, 1, 9, 0,15, 0.00,60.00,Monday
135,306327984.4973802
3420,306327984.49738014
3738,20131552.78990025
2,9, 1, 9, 0,16, 0.00,60.00,Monday
135,316123866.92687416
3420,316123866.9268741
3738,15659367.518054187
2,9, 1, 9, 0,17, 0.00,60.00,Monday
135,327546698.12814736
3420,327546698.1281473
3738,25336260.274702363
2,9, 1, 9, 0,18, 0.00,60.00,Monday
135,244345119.34568283
3420,244345119.3456828
3738,11889496.280538626
2,9, 1, 9, 0,19, 0.00,60.00,Monday
135,132058054.54262716
3420,132058054.54262716
3738,29639884.195282876
2,9, 1, 9, 0,20, 0.00,60.00,Monday
135,113569604.38930234
3420,113569604.38930234
3738,37791388.05831684
2,9, 1, 9, 0,21, 0.00,60.00,Monday
135,102995561.45784223
3420,102995561.45784223
3738,28044238.326031774
2,9, 1, 9, 0,22, 0.00,60.00,Monday
135,99270977.09380391
3420,99270977.09380393
3738,34552925.18996419
2,9, 1, 9, 0,23, 0.00,60.00,Monday
135,77772390.65670998
3420,77772390.65670998
3738,6791184.0
2,9, 1, 9, 0,24, 0.00,60.00,Monday
135,72442274.24247962
3420,72442274.24247962
3738,6791184.0
2,10, 1,10, 0, 1, 0.00,60.00,Tuesday
135,57996196.7332391
3420,57996196.7332391
3738,6791184.0
2,10, 1,10, 0, 2, 0.00,60.00,Tuesday
135,57609860.1137362
3420,57609860.1137362
3738,6791184.0
2,10, 1,10, 0, 3, 0.00,60.00,Tuesday
135,57609860.1137362
3420,57609860.1137362
3738,6791184.0
2,10, 1,10, 0, 4, 0.00,60.00,Tuesday
135,57609860.1137362
3420,57609860.1137362
3738,6791184.0
2,10, 1,10, 0, 5, 0.00,60.00,Tuesday
135,57609860.1137362
3420,57609860.1137362
3738,6791184.0
2,10, 1,10, 0, 6, 0.00,60.00,Tuesday
135,57609860.1137362
3420,57609860.1137362
3738,6791184.0
2,10, 1,10, 0, 7, 0.00,60.00,Tuesday
135,109241484.03426655
3420,109241484.03426656
3738,6791184.0
2,10, 1,10, 0, 8, 0.00,60.00,Tuesday
135,187760261.55668283
3420,187760261.5566828
3738,145463924.0397156
2,10, 1,10, 0, 9, 0.00,60.00,Tuesday
135,309138838.59977984
3420,309138838.59977984
3738,94639382.00549163
2,10, 1,10, 0,10, 0.00,60.00,Tuesday
135,271120229.2233554
3420,271120229.22335535
3738,73012988.1695501
2,10, 1,10, 0,11, 0.00,60.00,Tuesday
135,263622359.40291247
3420,263622359.4029124
3738,62543965.62747807
2,10, 1,10, 0,12, 0.00,60.00,Tuesday
135,273368629.5457738
3420,273368629.54577374
3738,73210307.98728074
2,10, 1,10, 0,13, 0.00,60.00,Tuesday
135,290854187.36217165
3420,290854187.36217153
3738,54602295.40491037
2,10, 1,10, 0,14, 0.00,60.00,Tuesday
135,289929906.96174586
3420,289929906.96174586
3738,34219214.91480814
2,10, 1,10, 0,15, 0.00,60.00,Tuesday
135,282578566.9029489
3420,282578566.90294886
3738,16267004.41835228
2,10, 1,10, 0,16, 0.00,60.00,Tuesday
135,284484513.64306796
3420,284484513.64306784
3738,17230420.316208206
2,10, 1,10, 0,17, 0.00,60.00,Tuesday
135,296341832.452655
3420,296341832.45265496
3738,23692855.808551967
2,10, 1,10, 0,18, 0.00,60.00,Tuesday
135,251247625.2761659
3420,251247625.27616584
3738,37431956.433166936
2,10, 1,10, 0,19, 0.00,60.00,Tuesday
135,131050375.24800546
3420,131050375.24800546
3738,76378769.31342216
2,10, 1,10, 0,20, 0.00,60.00,Tuesday
135,113569604.38930234
3420,113569604.38930234
3738,80852600.64787354
2,10, 1,10, 0,21, 0.00,60.00,Tuesday
135,103699294.81850919
3420,103699294.81850922
3738,90523103.31322458
2,10, 1,10, 0,22, 0.00,60.00,Tuesday
135,101613106.06173913
3420,101613106.06173915
3738,103635615.0351675
2,10, 1,10, 0,23, 0.00,60.00,Tuesday
135,77772390.65670998
3420,77772390.65670998
3738,6791184.0
2,10, 1,10, 0,24, 0.00,60.00,Tuesday
135,72442274.24247962
3420,72442274.24247962
3738,6791184.0
2,11, 1,11, 0, 1, 0.00,60.00,Wednesday
135,57996196.7332391
3420,57996196.7332391
3738,6791184.0
2,11, 1,11, 0, 2, 0.00,60.00,Wednesday
135,57609860.1137362
3420,57609860.1137362
3738,6791184.0
2,11, 1,11, 0, 3, 0.00,60.00,Wednesday
135,57609860.1137362
3420,57609860.1137362
3738,6791184.0
2,11, 1,11, 0, 4, 0.00,60.00,Wednesday
135,57609860.1137362
3420,57609860.1137362
3738,6791184.0
2,11, 1,11, 0, 5, 0.00,60.00,Wednesday
135,57609860.1137362
3420,57609860.1137362
3738,6791184.0
2,11, 1,11, 0, 6, 0.00,60.00,Wednesday
135,57609860.1137362
3420,57609860.1137362
3738,6791184.0
2,11, 1,11, 0, 7, 0.00,60.00,Wednesday
135,106621820.62916969
3420,106621820.62916969
3738,6791184.0
2,11, 1,11, 0, 8, 0.00,60.00,Wednesday
135,184793244.24737495
3420,184793244.24737495
3738,88186240.12306666
2,11, 1,11, 0, 9, 0.00,60.00,Wednesday
135,303923271.018982
3420,303923271.018982
3738,61499432.60401428
2,11, 1,11, 0,10, 0.00,60.00,Wednesday
135,267711650.00879294
3420,267711650.00879288
3738,46575797.92341852
2,11, 1,11, 0,11, 0.00,60.00,Wednesday
135,262489519.33470336
3420,262489519.33470333
3738,18923562.889081825
2,11, 1,11, 0,12, 0.00,60.00,Wednesday
135,270975850.4141873
3420,270975850.4141873
3738,28914462.846813545
2,11, 1,11, 0,13, 0.00,60.00,Wednesday
135,275067971.0999001
3420,275067971.09990007
3738,40919853.85375439
2,11, 1,11, 0,14, 0.00,60.00,Wednesday
135,274260054.2644315
3420,274260054.2644315
3738,29985758.350578982
2,11, 1,11, 0,15, 0.00,60.00,Wednesday
135,260184407.33136573
3420,260184407.3313657
3738,22051815.915427
2,11, 1,11, 0,16, 0.00,60.00,Wednesday
135,260487008.5835151
3420,260487008.58351508
3738,26915159.83833421
2,11, 1,11, 0,17, 0.00,60.00,Wednesday
135,277609236.26260096
3420,277609236.2626009
3738,55585763.04172848
2,11, 1,11, 0,18, 0.00,60.00,Wednesday
135,242115939.37632996
3420,242115939.37632996
3738,60685759.06674141
2,11, 1,11, 0,19, 0.00,60.00,Wednesday
135,131745699.84955749
3420,131745699.84955749
3738,88217692.04720785
2,11, 1,11, 0,20, 0.00,60.00,Wednesday
135,113726009.43077198
3420,113726009.43077198
3738,97650551.19659023
2,11, 1,11, 0,21, 0.00,60.00,Wednesday
135,104711212.58850534
3420,104711212.58850536
3738,97271642.08733073
2,11, 1,11, 0,22, 0.00,60.00,Wednesday
135,102273800.79864721
3420,102273800.79864722
3738,108055287.84622514
2,11, 1,11, 0,23, 0.00,60.00,Wednesday
135,77772390.65670998
3420,77772390.65670998
3738,6791184.0
2,11, 1,11, 0,24, 0.00,60.00,Wednesday
135,72442274.24247962
3420,72442274.24247962
3738,6791184.0
2,12, 1,12, 0, 1, 0.00,60.00,Thursday
135,57996196.7332391
3420,57996196.7332391
3738,6791184.0
2,12, 1,12, 0, 2, 0.00,60.00,Thursday
135,57609860.1137362
3420,57609860.1137362
3738,6791184.0
2,12, 1,12, 0, 3, 0.00,60.00,Thursday
135,57609860.1137362
3420,57609860.1137362
3738,6791184.0
2,12, 1,12, 0, 4, 0.00,60.00,Thursday
135,57609860.1137362
3420,57609860.1137362
3738,6791184.0
2,12, 1,12, 0, 5, 0.00,60.00,Thursday
135,57609860.1137362
3420,57609860.1137362
3738,6791184.0
2,12, 1,12, 0, 6, 0.00,60.00,Thursday
135,57609860.1137362
3420,57609860.1137362
3738,6791184.0
2,12, 1,12, 0, 7, 0.00,60.00,Thursday
135,110544914.50240415
3420,110544914.50240415
3738,6791184.0
2,12, 1,12, 0, 8, 0.00,60.00,Thursday
135,191294734.3258952
3420,191294734.3258952
3738,137505435.31568867
2,12, 1,12, 0, 9, 0.00,60.00,Thursday
135,311004438.7253985
3420,311004438.72539854
3738,89811072.20211193
2,12, 1,12, 0,10, 0.00,60.00,Thursday
135,269172319.92147744
3420,269172319.92147744
3738,77424450.9297922
2,12, 1,12, 0,11, 0.00,60.00,Thursday
135,262861798.82112986
3420,262861798.82112983
3738,60901949.614108995
2,12, 1,12, 0,12, 0.00,60.00,Thursday
135,275002392.6785765
3420,275002392.67857647
3738,54757323.99586694
2,12, 1,12, 0,13, 0.00,60.00,Thursday
135,293580909.0400681
3420,293580909.04006803
3738,46959566.676472336
2,12, 1,12, 0,14, 0.00,60.00,Thursday
135,285725798.4623568
3420,285725798.4623568
3738,42200570.30548948
2,12, 1,12, 0,15, 0.00,60.00,Thursday
135,270049179.72260845
3420,270049179.72260845
3738,24811039.311850145
2,12, 1,12, 0,16, 0.00,60.00,Thursday
135,269723515.9663888
3420,269723515.96638876
3738,33434225.423554562
2,12, 1,12, 0,17, 0.00,60.00,Thursday
135,288200004.6651787
3420,288200004.66517866
3738,43257284.73293063
2,12, 1,12, 0,18, 0.00,60.00,Thursday
135,249882352.55163157
3420,249882352.55163157
3738,57907282.99444534
2,12, 1,12, 0,19, 0.00,60.00,Thursday
135,133859585.16889761
3420,133859585.1688976
3738,88141666.21561913
2,12, 1,12, 0,20, 0.00,60.00,Thursday
135,113822587.93046883
3420,113822587.93046883
3738,86818808.99429671
2,12, 1,12, 0,21, 0.00,60.00,Thursday
135,105225918.80384257
3420,105225918.80384257
3738,91825096.65951581
2,12, 1,12, 0,22, 0.00,60.00,Thursday
135,102652625.60352063
3420,102652625.60352063
3738,95400811.58631289
2,12, 1,12, 0,23, 0.00,60.00,Thursday
135,77772390.65670998
3420,77772390.65670998
3738,6791184.0
2,12, 1,12, 0,24, 0.00,60.00,Thursday
135,72442274.24247962
3420,72442274.24247962
3738,6791184.0
2,13, 1,13, 0, 1, 0.00,60.00,Friday
135,57996196.7332391
3420,57996196.7332391
3738,6791184.0
2,13, 1,13, 0, 2, 0.00,60.00,Friday
135,57609860.1137362