Program Version,EnergyPlus, Version 9.6.0-f420c06a69, YMD=2022.07.16 15:02
1,5,Environment Title[],Latitude[deg],Longitude[deg],Time Zone[],Elevation[m]
2,8,Day of Simulation[],Month[],Day of Month[],DST Indicator[1=yes 0=no],Hour[],StartMinute[],EndMinute[],DayType
3,5,Cumulative Day of Simulation[],Month[],Day of Month[],DST Indicator[1=yes 0=no],DayType  ! When Daily Meters Requested
4,2,Cumulative Days of Simulation[],Month[]  ! When Monthly Meters Requested
5,1,Cumulative Days of Simulation[] ! When Run Period Meters Requested
6,1,Calendar Year of Simulation[] ! When Annual Meters Requested
135,1,Electricity:Facility [J] !Hourly
3420,1,ElectricityNet:Facility [J] !Hourly
3738,1,NaturalGas:Facility [J] !Hourly
End of Data Dictionary
1,RUNPERIOD 1,  35.04,-106.62,  -7.00,1619.00
2,1, 1, 1, 0, 1, 0.00,60.00,Holiday
135,46359074.93593144
3420,46359074.93593143
3738,6791184.0
2,1, 1, 1, 0, 2, 0.00,60.00,Holiday
135,46359235.70955593
3420,46359235.709555924
3738,6791184.0
2,1, 1, 1, 0, 3, 0.00,60.00,Holiday
135,46359235.70955593
3420,46359235.709555924
3738,6791184.0
2,1, 1, 1, 0, 4, 0.00,60.00,Holiday
135,46359235.70955593
3420,46359235.709555924
3738,6791184.0
2,1, 1, 1, 0, 5, 0.00,60.00,Holiday
135,46359235.70955593
3420,46359235.709555924
3738,6791184.0
2,1, 1, 1, 0, 6, 0.00,60.00,Holiday
135,46359235.70955593
3420,46359235.709555924
3738,6791184.0
2,1, 1, 1, 0, 7, 0.00,60.00,Holiday
135,66032185.73006148
3420,66032185.73006148
3738,6791184.0
2,1, 1, 1, 0, 8, 0.00,60.00,Holiday
135,50074623.774579875
3420,50074623.774579875
3738,6791184.0
2,1, 1, 1, 0, 9, 0.00,60.00,Holiday
135,46351708.9331394
3420,46351708.9331394
3738,6791184.0
2,1, 1, 1, 0,10, 0.00,60.00,Holiday
135,46288813.17904917
3420,46288813.179049164
3738,6791184.0
2,1, 1, 1, 0,11, 0.00,60.00,Holiday
135,51149014.50787013
3420,51149014.50787013
3738,6791184.0
2,1, 1, 1, 0,12, 0.00,60.00,Holiday
135,53542591.30173427
3420,53542591.30173427
3738,6791184.0
2,1, 1, 1, 0,13, 0.00,60.00,Holiday
135,54827857.64153222
3420,54827857.64153222
3738,6791184.0
2,1, 1, 1, 0,14, 0.00,60.00,Holiday
135,61196507.52122828
3420,61196507.5212283
3738,6791184.0
2,1, 1, 1, 0,15, 0.00,60.00,Holiday
135,67239153.60782859
3420,67239153.60782859
3738,6791184.0
2,1, 1, 1, 0,16, 0.00,60.00,Holiday
135,64721412.807741076
3420,64721412.80774109
3738,6791184.0
2,1, 1, 1, 0,17, 0.00,60.00,Holiday
135,55473596.479658276
3420,55473596.479658276
3738,6791184.0
2,1, 1, 1, 0,18, 0.00,60.00,Holiday
135,66905826.86107348
3420,66905826.86107348
3738,6791184.0
2,1, 1, 1, 0,19, 0.00,60.00,Holiday
135,57105773.81922845
3420,57105773.81922844
3738,6791184.0
2,1, 1, 1, 0,20, 0.00,60.00,Holiday
135,48904615.70955593
3420,48904615.70955593
3738,6791184.0
2,1, 1, 1, 0,21, 0.00,60.00,Holiday
135,48904615.70955593
3420,48904615.70955593
3738,6791184.0
2,1, 1, 1, 0,22, 0.00,60.00,Holiday
135,48904615.70955593
3420,48904615.70955593
3738,6791184.0
2,1, 1, 1, 0,23, 0.00,60.00,Holiday
135,48904615.70955593
3420,48904615.70955593
3738,6791184.0
2,1, 1, 1, 0,24, 0.00,60.00,Holiday
135,48904615.70955593
3420,48904615.70955593
3738,6791184.0
2,2, 1, 2, 0, 1, 0.00,60.00,Monday
135,57609860.1137362
3420,57609860.1137362
3738,6791184.0
2,2, 1, 2, 0, 2, 0.00,60.00,Monday
135,57609860.1137362
3420,57609860.1137362
3738,6791184.0
2,2, 1, 2, 0, 3, 0.00,60.00,Monday
135,57609860.1137362
3420,57609860.1137362
3738,6791184.0
2,2, 1, 2, 0, 4, 0.00,60.00,Monday
135,57609860.1137362
3420,57609860.1137362
3738,6791184.0
2,2, 1, 2, 0, 5, 0.00,60.00,Monday
135,57609860.1137362
3420,57609860.1137362
3738,6791184.0
2,2, 1, 2, 0, 6, 0.00,60.00,Monday
135,57609860.1137362
3420,57609860.1137362
3738,6791184.0
2,2, 1, 2, 0, 7, 0.00,60.00,Monday
135,127996825.63454857
3420,127996825.63454857
3738,6791184.0
2,2, 1, 2, 0, 8, 0.00,60.00,Monday
135,215776918.25572556
3420,215776918.25572553
3738,138020718.205081
2,2, 1, 2, 0, 9, 0.00,60.00,Monday
135,308779831.98790205
3420,308779831.98790205
3738,82873177.66038454
2,2, 1, 2, 0,10, 0.00,60.00,Monday
135,272391633.6877966
3420,272391633.68779653
3738,53951717.89646106
2,2, 1, 2, 0,11, 0.00,60.00,Monday
135,270626858.73905873
3420,270626858.73905873
3738,16290746.029742379
2,2, 1, 2, 0,12, 0.00,60.00,Monday
135,289695713.59204376
3420,289695713.59204376
3738,20876788.629584327
2,2, 1, 2, 0,13, 0.00,60.00,Monday
135,291132855.59700644
3420,291132855.59700644
3738,31334466.06780298
2,2, 1, 2, 0,14, 0.00,60.00,Monday
135,308021486.08789706
3420,308021486.08789706
3738,26165957.600102253
2,2, 1, 2, 0,15, 0.00,60.00,Monday
135,301222934.61526537
3420,301222934.6152653
3738,16608219.527592774
2,2, 1, 2, 0,16, 0.00,60.00,Monday
135,306260640.67507416
3420,306260640.67507416
3738,19132384.55082509
2,2, 1, 2, 0,17, 0.00,60.00,Monday
135,303775473.3403636
3420,303775473.34036356
3738,20696667.15605069
2,2, 1, 2, 0,18, 0.00,60.00,Monday
135,238144633.47194412
3420,238144633.4719441
3738,19995254.898005724
2,2, 1, 2, 0,19, 0.00,60.00,Monday
135,130915817.59055667
3420,130915817.59055667
3738,46965666.73843971
2,2, 1, 2, 0,20, 0.00,60.00,Monday
135,114591120.3768551
3420,114591120.3768551
3738,60485811.603654675
2,2, 1, 2, 0,21, 0.00,60.00,Monday
135,105863576.09982648
3420,105863576.09982648
3738,74237317.72791636
2,2, 1, 2, 0,22, 0.00,60.00,Monday
135,103011114.57527736
3420,103011114.57527736
3738,75836107.61545125
2,2, 1, 2, 0,23, 0.00,60.00,Monday
135,77772390.65670998
3420,77772390.65670998
3738,6791184.0
2,2, 1, 2, 0,24, 0.00,60.00,Monday
135,72442274.24247962
3420,72442274.24247962
3738,6791184.0
2,3, 1, 3, 0, 1, 0.00,60.00,Tuesday
135,57996196.7332391
3420,57996196.7332391
3738,6791184.0
2,3, 1, 3, 0, 2, 0.00,60.00,Tuesday
135,57609860.1137362
3420,57609860.1137362
3738,6791184.0
2,3, 1, 3, 0, 3, 0.00,60.00,Tuesday
135,57609860.1137362
3420,57609860.1137362
3738,6791184.0
2,3, 1, 3, 0, 4, 0.00,60.00,Tuesday
135,57609860.1137362
3420,57609860.1137362
3738,6791184.0
2,3, 1, 3, 0, 5, 0.00,60.00,Tuesday
135,57609860.1137362
3420,57609860.1137362
3738,6791184.0
2,3, 1, 3, 0, 6, 0.00,60.00,Tuesday
135,57609860.1137362
3420,57609860.1137362
3738,6791184.0
2,3, 1, 3, 0, 7, 0.00,60.00,Tuesday
135,106931257.37472215
3420,106931257.37472212
3738,6791184.0
2,3, 1, 3, 0, 8, 0.00,60.00,Tuesday
135,184734841.1423446
3420,184734841.1423446
3738,120832959.7297068
2,3, 1, 3, 0, 9, 0.00,60.00,Tuesday
135,312265575.62436616
3420,312265575.62436616
3738,68892671.80928904
2,3, 1, 3, 0,10, 0.00,60.00,Tuesday
135,279812349.24392164
3420,279812349.24392164
3738,27777781.23698724
2,3, 1, 3, 0,11, 0.00,60.00,Tuesday
135,278334900.0313619
3420,278334900.0313619
3738,9295933.261404604
2,3, 1, 3, 0,12, 0.00,60.00,Tuesday
135,290684622.63813865
3420,290684622.63813865
3738,23542259.622301124
2,3, 1, 3, 0,13, 0.00,60.00,Tuesday
135,290073427.60944575
3420,290073427.60944575
3738,31314670.33408197
2,3, 1, 3, 0,14, 0.00,60.00,Tuesday
135,310992360.4623211
3420,310992360.4623211
3738,26173988.008377485
2,3, 1, 3, 0,15, 0.00,60.00,Tuesday
135,304399542.1364196
3420,304399542.1364196
3738,20136318.269308336
2,3, 1, 3, 0,16, 0.00,60.00,Tuesday
135,307988397.5189607
3420,307988397.5189607
3738,15643327.52017567
2,3, 1, 3, 0,17, 0.00,60.00,Tuesday
135,308892318.79675066
3420,308892318.79675055
3738,20680908.07240238
2,3, 1, 3, 0,18, 0.00,60.00,Tuesday
135,242444435.70438933
3420,242444435.70438927
3738,17142448.635052834
2,3, 1, 3, 0,19, 0.00,60.00,Tuesday
135,132020230.38103068
3420,132020230.38103068
3738,30545442.89998103
2,3, 1, 3, 0,20, 0.00,60.00,Tuesday
135,113569604.38930234
3420,113569604.38930234
3738,51197386.2512701
2,3, 1, 3, 0,21, 0.00,60.00,Tuesday
135,102910895.06207252
3420,102910895.06207252
3738,61617336.07872213
2,3, 1, 3, 0,22, 0.00,60.00,Tuesday
135,99066319.72275673
3420,99066319.72275674
3738,91836207.95515485
2,3, 1, 3, 0,23, 0.00,60.00,Tuesday
135,77772390.65670998
3420,77772390.65670998
3738,6791184.0
2,3, 1, 3, 0,24, 0.00,60.00,Tuesday
135,72442274.24247962
3420,72442274.24247962
3738,6791184.0
2,4, 1, 4, 0, 1, 0.00,60.00,Wednesday
135,57996196.7332391
3420,57996196.7332391
3738,6791184.0
2,4, 1, 4, 0, 2, 0.00,60.00,Wednesday
135,57609860.1137362
3420,57609860.1137362
3738,6791184.0
2,4, 1, 4, 0, 3, 0.00,60.00,Wednesday
135,57609860.1137362
3420,57609860.1137362
3738,6791184.0
2,4, 1, 4, 0, 4, 0.00,60.00,Wednesday
135,57609860.1137362
3420,57609860.1137362
3738,6791184.0
2,4, 1, 4, 0, 5, 0.00,60.00,Wednesday
135,57609860.1137362
3420,57609860.1137362
3738,6791184.0
2,4, 1, 4, 0, 6, 0.00,60.00,Wednesday
135,57609860.1137362
3420,57609860.1137362
3738,6791184.0
2,4, 1, 4, 0, 7, 0.00,60.00,Wednesday
135,105589672.17131001
3420,105589672.17131001
3738,6791184.0
2,4, 1, 4, 0, 8, 0.00,60.00,Wednesday
135,186994271.37216982
3420,186994271.37216982
3738,145705263.96517718
2,4, 1, 4, 0, 9, 0.00,60.00,Wednesday
135,309554414.3926672
3420,309554414.3926672
3738,85886563.72873858
2,4, 1, 4, 0,10, 0.00,60.00,Wednesday
135,271806284.3138714
3420,271806284.3138714
3738,56786350.2483033
2,4, 1, 4, 0,11, 0.00,60.00,Wednesday
135,266227060.065638
3420,266227060.06563798
3738,36500150.44782153
2,4, 1, 4, 0,12, 0.00,60.00,Wednesday
135,280852157.9264813
3420,280852157.92648125
3738,23905173.592313014
2,4, 1, 4, 0,13, 0.00,60.00,Wednesday
135,285806911.53114575
3420,285806911.5311457
3738,31348428.280473176
2,4, 1, 4, 0,14, 0.00,60.00,Wednesday
135,292247582.5843486
3420,292247582.5843486
3738,26188369.92805105
2,4, 1, 4, 0,15, 0.00,60.00,Wednesday
135,278685700.7699811
3420,278685700.7699811
3738,20127979.25239978
2,4, 1, 4, 0,16, 0.00,60.00,Wednesday
135,276701829.2304794
3420,276701829.2304794
3738,15653115.49053643
2,4, 1, 4, 0,17, 0.00,60.00,Wednesday
135,295800352.64462346
3420,295800352.64462346
3738,25318362.06690717
2,4, 1, 4, 0,18, 0.00,60.00,Wednesday
135,249910119.2067584
3420,249910119.2067584
3738,14916487.4941658
2,4, 1, 4, 0,19, 0.00,60.00,Wednesday
135,132087868.42582312
3420,132087868.42582312
3738,28608196.847382642
2,4, 1, 4, 0,20, 0.00,60.00,Wednesday
135,113569604.38930234
3420,113569604.38930234
3738,41950086.971998
2,4, 1, 4, 0,21, 0.00,60.00,Wednesday
135,102910895.06207252
3420,102910895.06207252
3738,55467458.59770396
2,4, 1, 4, 0,22, 0.00,60.00,Wednesday
135,98309715.15033215
3420,98309715.15033217
3738,67150034.13297765
2,4, 1, 4, 0,23, 0.00,60.00,Wednesday
135,77772390.65670998
3420,77772390.65670998
3738,6791184.0
2,4, 1, 4, 0,24, 0.00,60.00,Wednesday
135,72442274.24247962
3420,72442274.24247962
3738,6791184.0
2,5, 1, 5, 0, 1, 0.00,60.00,Thursday
135,57996196.7332391
3420,57996196.7332391
3738,6791184.0
2,5, 1, 5, 0, 2, 0.00,60.00,Thursday
135,57609860.1137362
3420,57609860.1137362
3738,6791184.0
2,5, 1, 5, 0, 3, 0.00,60.00,Thursday
135,57609860.1137362
3420,57609860.1137362
3738,6791184.0
2,5, 1, 5, 0, 4, 0.00,60.00,Thursday
135,57609860.1137362
3420,57609860.1137362
3738,6791184.0
2,5, 1, 5, 0, 5, 0.00,60.00,Thursday
135,57609860.1137362
3420,57609860.1137362
3738,6791184.0
2,5, 1, 5, 0, 6, 0.00,60.00,Thursday
135,57609860.1137362
3420,57609860.1137362
3738,6791184.0
2,5, 1, 5, 0, 7, 0.00,60.00,Thursday
135,98033371.03879818
3420,98033371.03879818
3738,6791184.0
2,5, 1, 5, 0, 8, 0.00,60.00,Thursday
135,173700639.0321286
3420,173700639.03212857
3738,111238549.76940404
2,5, 1, 5, 0, 9, 0.00,60.00,Thursday
135,311126043.0625786
3420,311126043.0625787
3738,58993052.6109705
2,5, 1, 5, 0,10, 0.00,60.00,Thursday
135,280456081.7388981
3420,280456081.7388981
3738,15509329.718788667
2,5, 1, 5, 0,11, 0.00,60.00,Thursday
135,279653006.81567794
3420,279653006.8156779
3738,11332815.121173378
2,5, 1, 5, 0,12, 0.00,60.00,Thursday
135,292080103.72809494
3420,292080103.72809494
3738,20890628.524733763
2,5, 1, 5, 0,13, 0.00,60.00,Thursday
135,295239413.1441535
3420,295239413.1441534
3738,31320979.990852267
2,5, 1, 5, 0,14, 0.00,60.00,Thursday
135,318924667.63958967
3420,318924667.63958967
3738,26189164.44050891
2,5, 1, 5, 0,15, 0.00,60.00,Thursday
135,312361586.6290088
3420,312361586.62900877
3738,20204665.542232107
2,5, 1, 5, 0,16, 0.00,60.00,Thursday
135,316269250.514234
3420,316269250.514234
3738,15641911.4183876
2,5, 1, 5, 0,17, 0.00,60.00,Thursday
135,319057848.4593347
3420,319057848.4593346
3738,25321941.005034097
2,5, 1, 5, 0,18, 0.00,60.00,Thursday
135,245693110.72564322
3420,245693110.72564316
3738,11105030.842476413
2,5, 1, 5, 0,19, 0.00,60.00,Thursday
135,132895769.43747267
3420,132895769.43747267
3738,13963710.809994837
2,5, 1, 5, 0,20, 0.00,60.00,Thursday
135,113569604.38930234
3420,113569604.38930234
3738,28437569.263323862
2,5, 1, 5, 0,21, 0.00,60.00,Thursday
135,102910895.06207252
3420,102910895.06207252
3738,39933230.3346677
2,5, 1, 5, 0,22, 0.00,60.00,Thursday
135,98267997.61519502
3420,98267997.61519504
3738,53990497.68475639
2,5, 1, 5, 0,23, 0.00,60.00,Thursday
135,77772390.65670998
3420,77772390.65670998
3738,6791184.0
2,5, 1, 5, 0,24, 0.00,60.00,Thursday
135,72442274.24247962
3420,72442274.24247962
3738,6791184.0
2,6, 1, 6, 0, 1, 0.00,60.00,Friday
135,57996196.7332391
3420,57996196.7332391
3738,6791184.0
2,6, 1, 6, 0, 2, 0.00,60.00,Friday
135,57609860.1137362
3420,57609860.1137362
3738,6791184.0
2,6, 1, 6, 0, 3, 0.00,60.00,Friday
135,57609860.1137362
3420,57609860.1137362
3738,6791184.0
2,6, 1, 6, 0, 4, 0.00,60.00,Friday
135,57609860.1137362
3420,57609860.1137362
3738,6791184.0
2,6, 1, 6, 0, 5, 0.00,60.00,Friday
135,57609860.1137362
3420,57609860.1137362
3738,6791184.0
2,6, 1, 6, 0, 6, 0.00,60.00,Friday
135,57609860.1137362
3420,57609860.1137362
3738,6791184.0
2,6, 1, 6, 0, 7, 0.00,60.00,Friday
135,101064092.81470338
3420,101064092.81470339
3738,6791184.0
2,6, 1, 6, 0, 8, 0.00,60.00,Friday
135,185346524.93959942
3420,185346524.93959942
3738,115467959.56702586
2,6, 1, 6, 0, 9, 0.00,60.00,Friday
135,311923043.7880972
3420,311923043.78809726
3738,82816019.67999625
2,6, 1, 6, 0,10, 0.00,60.00,Friday
135,270694031.76516604
3420,270694031.765166
3738,75239623.97117491
2,6, 1, 6, 0,11, 0.00,60.00,Friday
135,263495427.2556525
3420,263495427.25565243
3738,64439638.721846566
2,6, 1, 6, 0,12, 0.00,60.00,Friday
135,282337932.9625556
3420,282337932.9625556
3738,41028615.53160257
2,6, 1, 6, 0,13, 0.00,60.00,Friday
135,291574939.124774
3420,291574939.124774
3738,28086195.41144824
2,6, 1, 6, 0,14, 0.00,60.00,Friday
135,308510134.45005065
3420,308510134.4500506
3738,27377175.19957548
2,6, 1, 6, 0,15, 0.00,60.00,Friday
135,301336054.30345774
3420,301336054.3034577
3738,19081677.532556906
2,6, 1, 6, 0,16, 0.00,60.00,Friday
135,304485741.31170154
3420,304485741.3117015
3738,15649324.49582205
2,6, 1, 6, 0,17, 0.00,60.00,Friday
135,309293624.2964411
3420,309293624.2964411
3738,25324647.81554067
2,6, 1, 6, 0,18, 0.00,60.00,Friday
135,251953573.67705438
3420,251953573.67705435
3738,47037348.74442707
2,6, 1, 6, 0,19, 0.00,60.00,Friday
135,131485550.84497085
3420,131485550.84497085
3738,71826629.27631271
2,6, 1, 6, 0,20, 0.00,60.00,Friday
135,113569604.38930234
3420,113569604.38930234
3738,75416653.03443243
2,6, 1, 6, 0,21, 0.00,60.00,Friday
135,103764610.52814513
3420,103764610.52814513
3738,92990467.05984515
2,6, 1, 6, 0,22, 0.00,60.00,Friday
135,100585058.6058942
3420,100585058.60589421
3738,92017473.24083956
2,6, 1, 6, 0,23, 0.00,60.00,Friday
135,77772390.65670998
3420,77772390.65670998
3738,6791184.0
2,6, 1, 6, 0,24, 0.00,60.00,Friday
135,72442274.24247962
3420,72442274.24247962
3738,6791184.0
2,7, 1, 7, 0, 1, 0.00,60.00,Saturday
135,46745513.81922844
3420,46745513.81922843
3738,6791184.0
2,7, 1, 7, 0, 2, 0.00,60.00,Saturday
135,46359235.70955593
3420,46359235.709555924
3738,6791184.0
2,7, 1, 7, 0, 3, 0.00,60.00,Saturday
135,46359235.70955593
3420,46359235.709555924
3738,6791184.0
2,7, 1, 7, 0, 4, 0.00,60.00,Saturday
135,46359235.70955593
3420,46359235.709555924
3738,6791184.0
2,7, 1, 7, 0, 5, 0.00,60.00,Saturday
135,46359235.70955593
3420,46359235.709555924
3738,6791184.0
2,7, 1, 7, 0, 6, 0.00,60.00,Saturday
135,46359235.70955593
3420,46359235.709555924
3738,6791184.0
2,7, 1, 7, 0, 7, 0.00,60.00,Saturday
135,110658986.52363959
3420,110658986.52363959
3738,6791184.0
2,7, 1, 7, 0, 8, 0.00,60.00,Saturday
135,138695402.51033598
3420,138695402.51033598
3738,126969411.92030156
2,7, 1, 7, 0, 9, 0.00,60.00,Saturday
135,132958991.5763829
3420,132958991.57638289
3738,109157451.86758667
2,7, 1, 7, 0,10, 0.00,60.00,Saturday
135,135186735.4852837
3420,135186735.4852837
3738,95394479.2624143
2,7, 1, 7, 0,11, 0.00,60.00,Saturday
135,128198436.92608744
3420,128198436.92608744
3738,67175145.91547632
2,7, 1, 7, 0,12, 0.00,60.00,Saturday
135,138990403.93048173
3420,138990403.93048173
3738,28301891.938491758
2,7, 1, 7, 0,13, 0.00,60.00,Saturday
135,98394738.11196306
3420,98394738.11196306
3738,17254649.171231195
2,7, 1, 7, 0,14, 0.00,60.00,Saturday
135,86592462.27269402
3420,86592462.27269402
3738,17789066.497359548
2,7, 1, 7, 0,15, 0.00,60.00,Saturday
135,80777988.06353001
3420,80777988.06353001
3738,15090803.136191286
2,7, 1, 7, 0,16, 0.00,60.00,Saturday
135,76233398.28453368
3420,76233398.28453368
3738,21666535.490505707
2,7, 1, 7, 0,17, 0.00,60.00,Saturday
135,78808078.43622886
3420,78808078.43622886
3738,30486975.937212512
2,7, 1, 7, 0,18, 0.00,60.00,Saturday
135,83077160.33306564
3420,83077160.33306564
3738,45612488.20405307
2,7, 1, 7, 0,19, 0.00,60.00,Saturday
135,66276703.53612528
3420,66276703.53612528
3738,6791184.0
2,7, 1, 7, 0,20, 0.00,60.00,Saturday
135,49290893.81922844
3420,49290893.81922844
3738,6791184.0
2,7, 1, 7, 0,21, 0.00,60.00,Saturday
135,48904615.70955593
3420,48904615.70955593
3738,6791184.0
2,7, 1, 7, 0,22, 0.00,60.00,Saturday
135,48904615.70955593
3420,48904615.70955593
3738,6791184.0
2,7, 1, 7, 0,23, 0.00,60.00,Saturday
135,48904615.70955593
3420,48904615.70955593
3738,6791184.0
2,7, 1, 7, 0,24, 0.00,60.00,Saturday
135,48904615.70955593
3420,48904615.70955593
3738,6791184.0
2,8, 1, 8, 0, 1, 0.00,60.00,Sunday
135,46359235.70955593
3420,46359235.709555924
3738,6791184.0
2,8, 1, 8, 0, 2, 0.00,60.00,Sunday
135,46359235.70955593
3420,46359235.709555924
3738,6791184.0
2,8, 1, 8, 0, 3, 0.00,60.00,Sunday
135,46359235.70955593
3420,46359235.709555924
3738,6791184.0
2,8, 1, 8, 0, 4, 0.00,60.00,Sunday
135,46359235.70955593
3420,46359235.709555924
3738,6791184.0
2,8, 1, 8, 0, 5, 0.00,60.00,Sunday
135,46359235.70955593
3420,46359235.709555924
3738,6791184.0
2,8, 1, 8, 0, 6, 0.00,60.00,Sunday
135,46359235.70955593
3420,46359235.709555924
3738,6791184.0
2,8, 1, 8, 0, 7, 0.00,60.00,Sunday
135,66032185.73006148
3420,66032185.73006148
3738,6791184.0
2,8, 1, 8, 0, 8, 0.00,60.00,Sunday
135,53323580.330645084
3420,53323580.330645084
3738,6791184.0
2,8, 1, 8, 0, 9, 0.00,60.00,Sunday
135,46344166.24829911
3420,46344166.24829911
3738,6791184.0
2,8, 1, 8, 0,10, 0.00,60.00,Sunday
135,46288812.51597283
3420,46288812.51597283
3738,6791184.0
2,8, 1, 8, 0,11, 0.00,60.00,Sunday
135,47491722.562535435
3420,47491722.56253543
3738,6791184.0
2,8, 1, 8, 0,12, 0.00,60.00,Sunday
135,51534624.13246677
3420,51534624.13246678
3738,6791184.0
2,8, 1, 8, 0,13, 0.00,60.00,Sunday
135,54257074.04386271
3420,54257074.043862715
3738,6791184.0
2,8, 1, 8, 0,14, 0.00,60.00,Sunday
135,53721980.20243213
3420,53721980.20243212
3738,6791184.0
2,8, 1, 8, 0,15, 0.00,60.00,Sunday
135,54373030.975432985
3420,54373030.975432985
3738,6791184.0
2,8, 1, 8, 0,16, 0.00,60.00,Sunday
135,54742633.464608006
3420,54742633.46460801
3738,6791184.0
2,8, 1, 8, 0,17, 0.00,60.00,Sunday
135,49567955.00626598
3420,49567955.00626599
3738,6791184.0
2,8, 1, 8, 0,18, 0.00,60.00,Sunday
135,66276671.30593526
3420,66276671.30593526
3738,6791184.0
2,8, 1, 8, 0,19, 0.00,60.00,Sunday
135,57105773.81922845
3420,57105773.81922844
3738,6791184.0
2,8, 1, 8, 0,20, 0.00,60.00,Sunday
135,48904615.70955593
3420,48904615.70955593
3738,6791184.0
2,8, 1, 8, 0,21, 0.00,60.00,Sunday
135,48904615.70955593
3420,48904615.70955593
3738,6791184.0
2,8, 1, 8, 0,22, 0.00,60.00,Sunday
135,48904615.70955593
3420,48904615.70955593
3738,6791184.0
2,8, 1, 8, 0,23, 0.00,60.00,Sunday
135,48904615.70955593
3420,48904615.70955593
3738,6791184.0
2,8, 1, 8, 0,24, 0.00,60.00,Sunday
135,48904615.70955593
3420,48904615.70955593
3738,6791184.0
2,9, 1, 9, 0, 1, 0.00,60.00,Monday
135,57609860.1137362
3420,57609860.1137362
3738,6791184.0
2,9, 1, 9, 0, 2, 0.00,60.00,Monday
135,57609860.1137362
3420,57609860.1137362
3738,6791184.0
2,9, 1, 9, 0, 3, 0.00,60.00,Monday
135,57609860.1137362
3420,57609860.1137362
3738,6791184.0
2,9, 1, 9, 0, 4, 0.00,60.00,Monday
135,57609860.1137362
3420,57609860.1137362
3738,6791184.0
2,9, 1, 9, 0, 5, 0.00,60.00,Monday
135,57609860.1137362
3420,57609860.1137362
3738,6791184.0
2,9, 1, 9, 0, 6, 0.00,60.00,Monday
135,57609860.1137362
3420,57609860.1137362
3738,6791184.0
2,9, 1, 9, 0, 7, 0.00,60.00,Monday
135,125318348.23007777
3420,125318348.23007777
3738,6791184.0
2,9, 1, 9, 0, 8, 0.00,60.00,Monday
135,213502508.4569891
3420,213502508.4569891
3738,128260759.2472445
2,9, 1, 9, 0, 9, 0.00,60.00,Monday
135,314218371.7488441
3420,314218371.748844
3738,77619034.55918255
2,9, 1, 9, 0,10, 0.00,60.00,Monday
135,275291294.1075943
3420,275291294.10759425
3738,50885952.351675734
2,9, 1, 9, 0,11, 0.00,60.00,Monday
135,272060157.0535846
3420,272060157.0535846
3738,15823347.253026558
2,9, 1, 9, 0,12, 0.00,60.00,Monday
135,290685983.34080917
3420,290685983.34080917
3738,20903859.462986242
2,9, 1, 9, 0,13, 0.00,60.00,Monday
135,292858735.0426574
3420,292858735.0426573
3738,31355574.534243517
2,9, 1, 9, 0,14, 0.00,60.00,Monday
135,310035971.97881037
3420,310035971.97881037
3738,26214925.92328624
2,9, 1, 9, 0,15, 0.00,60.00,Monday
135,305257633.61499375
3420,305257633.6149937
3738,20131558.38575593
2,9, 1, 9, 0,16, 0.00,60.00,Monday
135,314355318.2663924
3420,314355318.26639235
3738,15659346.520262282
2,9, 1, 9, 0,17, 0.00,60.00,Monday
135,324266331.09135675
3420,324266331.09135675
3738,25336255.085596606
2,9, 1, 9, 0,18, 0.00,60.00,Monday
135,243055342.87991905
3420,243055342.879919
3738,11361426.986641228
2,9, 1, 9, 0,19, 0.00,60.00,Monday
135,131931472.98240444
3420,131931472.98240444
3738,26005264.749094464
2,9, 1, 9, 0,20, 0.00,60.00,Monday
135,113569604.38930234
3420,113569604.38930234
3738,33746046.648631476
2,9, 1, 9, 0,21, 0.00,60.00,Monday
135,103356457.81335625
3420,103356457.81335627
3738,23808897.548629623
2,9, 1, 9, 0,22, 0.00,60.00,Monday
135,99868475.05632858
3420,99868475.0563286
3738,30443189.74852267
2,9, 1, 9, 0,23, 0.00,60.00,Monday
135,77772390.65670998
3420,77772390.65670998
3738,6791184.0
2,9, 1, 9, 0,24, 0.00,60.00,Monday
135,72442274.24247962
3420,72442274.24247962
3738,6791184.0
2,10, 1,10, 0, 1, 0.00,60.00,Tuesday
135,57996196.7332391
3420,57996196.7332391
3738,6791184.0
2,10, 1,10, 0, 2, 0.00,60.00,Tuesday
135,57609860.1137362
3420,57609860.1137362
3738,6791184.0
2,10, 1,10, 0, 3, 0.00,60.00,Tuesday
135,57609860.1137362
3420,57609860.1137362
3738,6791184.0
2,10, 1,10, 0, 4, 0.00,60.00,Tuesday
135,57609860.1137362
3420,57609860.1137362
3738,6791184.0
2,10, 1,10, 0, 5, 0.00,60.00,Tuesday
135,57609860.1137362
3420,57609860.1137362
3738,6791184.0
2,10, 1,10, 0, 6, 0.00,60.00,Tuesday
135,57609860.1137362
3420,57609860.1137362
3738,6791184.0
2,10, 1,10, 0, 7, 0.00,60.00,Tuesday
135,110126970.11494495
3420,110126970.11494493
3738,6791184.0
2,10, 1,10, 0, 8, 0.00,60.00,Tuesday
135,189816485.33084935
3420,189816485.33084932
3738,141936270.8836019
2,10, 1,10, 0, 9, 0.00,60.00,Tuesday
135,308616787.33627367
3420,308616787.33627373
3738,90948617.32478105
2,10, 1,10, 0,10, 0.00,60.00,Tuesday
135,270317579.35280055
3420,270317579.3528005
3738,69460081.06270625
2,10, 1,10, 0,11, 0.00,60.00,Tuesday
135,262947194.7749956
3420,262947194.77499554
3738,59285951.06898062
2,10, 1,10, 0,12, 0.00,60.00,Tuesday
135,272707725.94541264
3420,272707725.94541264
3738,69815332.27255166
2,10, 1,10, 0,13, 0.00,60.00,Tuesday
135,289177609.1549177
3420,289177609.1549177
3738,51443399.31945502
2,10, 1,10, 0,14, 0.00,60.00,Tuesday
135,289139079.52931863
3420,289139079.5293187
3738,32852098.42726697
2,10, 1,10, 0,15, 0.00,60.00,Tuesday
135,281248725.647593
3420,281248725.647593
3738,16084847.787683751
2,10, 1,10, 0,16, 0.00,60.00,Tuesday
135,283107701.02057576
3420,283107701.0205757
3738,17435270.087336846
2,10, 1,10, 0,17, 0.00,60.00,Tuesday
135,295212631.68539965
3420,295212631.68539965
3738,23480355.35063159
2,10, 1,10, 0,18, 0.00,60.00,Tuesday
135,250196968.4685569
3420,250196968.4685569
3738,34017645.86496791
2,10, 1,10, 0,19, 0.00,60.00,Tuesday
135,130978912.02516523
3420,130978912.02516523
3738,71009136.03922318
2,10, 1,10, 0,20, 0.00,60.00,Tuesday
135,113569604.38930234
3420,113569604.38930234
3738,75251134.67630728
2,10, 1,10, 0,21, 0.00,60.00,Tuesday
135,103750685.25123987
3420,103750685.2512399
3738,84837420.44913393
2,10, 1,10, 0,22, 0.00,60.00,Tuesday
135,101894276.71719031
3420,101894276.71719031
3738,97822447.29701453
2,10, 1,10, 0,23, 0.00,60.00,Tuesday
135,77772390.65670998
3420,77772390.65670998
3738,6791184.0
2,10, 1,10, 0,24, 0.00,60.00,Tuesday
135,72442274.24247962
3420,72442274.24247962
3738,6791184.0
2,11, 1,11, 0, 1, 0.00,60.00,Wednesday
135,57996196.7332391
3420,57996196.7332391
3738,6791184.0
2,11, 1,11, 0, 2, 0.00,60.00,Wednesday
135,57609860.1137362
3420,57609860.1137362
3738,6791184.0
2,11, 1,11, 0, 3, 0.00,60.00,Wednesday
135,57609860.1137362
3420,57609860.1137362
3738,6791184.0
2,11, 1,11, 0, 4, 0.00,60.00,Wednesday
135,57609860.1137362
3420,57609860.1137362
3738,6791184.0
2,11, 1,11, 0, 5, 0.00,60.00,Wednesday
135,57609860.1137362
3420,57609860.1137362
3738,6791184.0
2,11, 1,11, 0, 6, 0.00,60.00,Wednesday
135,57609860.1137362
3420,57609860.1137362
3738,6791184.0
2,11, 1,11, 0, 7, 0.00,60.00,Wednesday
135,105922279.9238066
3420,105922279.92380661
3738,6791184.0
2,11, 1,11, 0, 8, 0.00,60.00,Wednesday
135,184000501.76449788
3420,184000501.76449788
3738,82897257.81765608
2,11, 1,11, 0, 9, 0.00,60.00,Wednesday
135,303227505.24931717
3420,303227505.2493171
3738,57670964.87015077
2,11, 1,11, 0,10, 0.00,60.00,Wednesday
135,267469486.75206155
3420,267469486.75206155
3738,42243885.9734633
2,11, 1,11, 0,11, 0.00,60.00,Wednesday
135,262078775.4130451
3420,262078775.4130451
3738,15891928.484639969
2,11, 1,11, 0,12, 0.00,60.00,Wednesday
135,270848937.6044462
3420,270848937.60444605
3738,26006319.74894491
2,11, 1,11, 0,13, 0.00,60.00,Wednesday
135,273515078.2998204
3420,273515078.2998204
3738,36959362.79546365
2,11, 1,11, 0,14, 0.00,60.00,Wednesday
135,274086230.05698967
3420,274086230.05698967
3738,28045935.548730776
2,11, 1,11, 0,15, 0.00,60.00,Wednesday
135,260056095.76673865
3420,260056095.76673862
3738,20142074.571618717
2,11, 1,11, 0,16, 0.00,60.00,Wednesday
135,260357102.77063724
3420,260357102.7706372
3738,22941779.18088862
2,11, 1,11, 0,17, 0.00,60.00,Wednesday
135,277460875.35028064
3420,277460875.35028064
3738,51485990.19895953
2,11, 1,11, 0,18, 0.00,60.00,Wednesday
135,241936186.51660857
3420,241936186.51660854
3738,56448864.551274315
2,11, 1,11, 0,19, 0.00,60.00,Wednesday
135,131637909.37629521
3420,131637909.37629521
3738,82002439.16153952
2,11, 1,11, 0,20, 0.00,60.00,Wednesday
135,113619358.93068647
3420,113619358.93068647
3738,91497585.96596928
2,11, 1,11, 0,21, 0.00,60.00,Wednesday
135,104262247.91637906
3420,104262247.9163791
3738,91146849.75905141
2,11, 1,11, 0,22, 0.00,60.00,Wednesday
135,101737861.01893637
3420,101737861.01893637
3738,101984503.2166133
2,11, 1,11, 0,23, 0.00,60.00,Wednesday
135,77772390.65670998
3420,77772390.65670998
3738,6791184.0
2,11, 1,11, 0,24, 0.00,60.00,Wednesday
135,72442274.24247962
3420,72442274.24247962
3738,6791184.0
2,12, 1,12, 0, 1, 0.00,60.00,Thursday
135,57996196.7332391
3420,57996196.7332391
3738,6791184.0
2,12, 1,12, 0, 2, 0.00,60.00,Thursday
135,57609860.1137362
3420,57609860.1137362
3738,6791184.0
2,12, 1,12, 0, 3, 0.00,60.00,Thursday
135,57609860.1137362
3420,57609860.1137362
3738,6791184.0
2,12, 1,12, 0, 4, 0.00,60.00,Thursday
135,57609860.1137362
3420,57609860.1137362
3738,6791184.0
2,12, 1,12, 0, 5, 0.00,60.00,Thursday
135,57609860.1137362
3420,57609860.1137362
3738,6791184.0
2,12, 1,12, 0, 6, 0.00,60.00,Thursday
135,57609860.1137362
3420,57609860.1137362
3738,6791184.0
2,12, 1,12, 0, 7, 0.00,60.00,Thursday
135,109253380.74704915
3420,109253380.74704915
3738,6791184.0
2,12, 1,12, 0, 8, 0.00,60.00,Thursday
135,189200607.22229147
3420,189200607.2222915
3738,131283952.58213148
2,12, 1,12, 0, 9, 0.00,60.00,Thursday
135,310592422.1091407
3420,310592422.1091407
3738,85701356.30265406
2,12, 1,12, 0,10, 0.00,60.00,Thursday
135,269467122.2867766
3420,269467122.2867766
3738,73298536.81994002
2,12, 1,12, 0,11, 0.00,60.00,Thursday
135,263345528.67598352
3420,263345528.6759835
3738,56676722.02886122
2,12, 1,12, 0,12, 0.00,60.00,Thursday
135,275484684.66187763
3420,275484684.6618775
3738,50070137.37953781
2,12, 1,12, 0,13, 0.00,60.00,Thursday
135,292344135.3165302
3420,292344135.31653017
3738,42317598.28324366
2,12, 1,12, 0,14, 0.00,60.00,Thursday
135,286275129.67664224
3420,286275129.6766422
3738,37471922.67235887
2,12, 1,12, 0,15, 0.00,60.00,Thursday
135,270714065.22421205
3420,270714065.224212
3738,19043105.622212652
2,12, 1,12, 0,16, 0.00,60.00,Thursday
135,270539668.0519588
3420,270539668.0519588
3738,26858725.71392335
2,12, 1,12, 0,17, 0.00,60.00,Thursday
135,289123330.7683463
3420,289123330.7683463
3738,34304286.027192734
2,12, 1,12, 0,18, 0.00,60.00,Thursday
135,250937668.78823858
3420,250937668.78823853
3738,49659145.82211023
2,12, 1,12, 0,19, 0.00,60.00,Thursday
135,132517931.99976406
3420,132517931.99976406
3738,73521681.7158879
2,12, 1,12, 0,20, 0.00,60.00,Thursday
135,113569604.38930234
3420,113569604.38930234
3738,71326959.25989014
2,12, 1,12, 0,21, 0.00,60.00,Thursday
135,103804864.95572658
3420,103804864.9557266
3738,75049794.03197645
2,12, 1,12, 0,22, 0.00,60.00,Thursday
135,100887445.94943054
3420,100887445.94943054
3738,77642668.43636765
2,12, 1,12, 0,23, 0.00,60.00,Thursday
135,77772390.65670998
3420,77772390.65670998
3738,6791184.0
2,12, 1,12, 0,24, 0.00,60.00,Thursday
135,72442274.24247962
3420,72442274.24247962
3738,6791184.0
2,13, 1,13, 0, 1, 0.00,60.00,Friday
135,57996196.7332391
3420,57996196.7332391
3738,6791184.0