Program Version,EnergyPlus, Version 9.6.0-f420c06a69, YMD=2022.07.05 15:07
1,5,Environment Title[],Latitude[deg],Longitude[deg],Time Zone[],Elevation[m]
2,8,Day of Simulation[],Month[],Day of Month[],DST Indicator[1=yes 0=no],Hour[],StartMinute[],EndMinute[],DayType
3,5,Cumulative Day of Simulation[],Month[],Day of Month[],DST Indicator[1=yes 0=no],DayType  ! When Daily Meters Requested
4,2,Cumulative Days of Simulation[],Month[]  ! When Monthly Meters Requested
5,1,Cumulative Days of Simulation[] ! When Run Period Meters Requested
6,1,Calendar Year of Simulation[] ! When Annual Meters Requested
135,1,Electricity:Facility [J] !Hourly
3420,1,ElectricityNet:Facility [J] !Hourly
3738,1,NaturalGas:Facility [J] !Hourly
End of Data Dictionary
1,RUNPERIOD 1,  35.04,-106.62,  -7.00,1619.00
2,1, 1, 1, 0, 1, 0.00,60.00,Holiday
135,46359074.93593144
3420,46359074.93593143
3738,6791184.0
2,1, 1, 1, 0, 2, 0.00,60.00,Holiday
135,46359235.70955593
3420,46359235.709555924
3738,6791184.0
2,1, 1, 1, 0, 3, 0.00,60.00,Holiday
135,46359235.70955593
3420,46359235.709555924
3738,6791184.0
2,1, 1, 1, 0, 4, 0.00,60.00,Holiday
135,46359235.70955593
3420,46359235.709555924
3738,6791184.0
2,1, 1, 1, 0, 5, 0.00,60.00,Holiday
135,46359235.70955593
3420,46359235.709555924
3738,6791184.0
2,1, 1, 1, 0, 6, 0.00,60.00,Holiday
135,46359235.70955593
3420,46359235.709555924
3738,6791184.0
2,1, 1, 1, 0, 7, 0.00,60.00,Holiday
135,66032185.73006148
3420,66032185.73006148
3738,6791184.0
2,1, 1, 1, 0, 8, 0.00,60.00,Holiday
135,50074623.774579875
3420,50074623.774579875
3738,6791184.0
2,1, 1, 1, 0, 9, 0.00,60.00,Holiday
135,46351708.9331394
3420,46351708.9331394
3738,6791184.0
2,1, 1, 1, 0,10, 0.00,60.00,Holiday
135,46288813.17904917
3420,46288813.179049164
3738,6791184.0
2,1, 1, 1, 0,11, 0.00,60.00,Holiday
135,50009342.363199614
3420,50009342.363199614
3738,6791184.0
2,1, 1, 1, 0,12, 0.00,60.00,Holiday
135,53617732.55272024
3420,53617732.55272024
3738,6791184.0
2,1, 1, 1, 0,13, 0.00,60.00,Holiday
135,53634290.22678877
3420,53634290.22678876
3738,6791184.0
2,1, 1, 1, 0,14, 0.00,60.00,Holiday
135,58165555.4574862
3420,58165555.45748622
3738,6791184.0
2,1, 1, 1, 0,15, 0.00,60.00,Holiday
135,62026144.28259239
3420,62026144.28259239
3738,6791184.0
2,1, 1, 1, 0,16, 0.00,60.00,Holiday
135,62605261.924326405
3420,62605261.924326405
3738,6791184.0
2,1, 1, 1, 0,17, 0.00,60.00,Holiday
135,50224406.74534619
3420,50224406.74534619
3738,6791184.0
2,1, 1, 1, 0,18, 0.00,60.00,Holiday
135,67534969.93162571
3420,67534969.93162571
3738,6791184.0
2,1, 1, 1, 0,19, 0.00,60.00,Holiday
135,57105773.81922845
3420,57105773.81922844
3738,6791184.0
2,1, 1, 1, 0,20, 0.00,60.00,Holiday
135,48904615.70955593
3420,48904615.70955593
3738,6791184.0
2,1, 1, 1, 0,21, 0.00,60.00,Holiday
135,48904615.70955593
3420,48904615.70955593
3738,6791184.0
2,1, 1, 1, 0,22, 0.00,60.00,Holiday
135,48904615.70955593
3420,48904615.70955593
3738,6791184.0
2,1, 1, 1, 0,23, 0.00,60.00,Holiday
135,48904615.70955593
3420,48904615.70955593
3738,6791184.0
2,1, 1, 1, 0,24, 0.00,60.00,Holiday
135,48904615.70955593
3420,48904615.70955593
3738,6791184.0
2,2, 1, 2, 0, 1, 0.00,60.00,Monday
135,57609860.1137362
3420,57609860.1137362
3738,6791184.0
2,2, 1, 2, 0, 2, 0.00,60.00,Monday
135,57609860.1137362
3420,57609860.1137362
3738,6791184.0
2,2, 1, 2, 0, 3, 0.00,60.00,Monday
135,57609860.1137362
3420,57609860.1137362
3738,6791184.0
2,2, 1, 2, 0, 4, 0.00,60.00,Monday
135,57609860.1137362
3420,57609860.1137362
3738,6791184.0
2,2, 1, 2, 0, 5, 0.00,60.00,Monday
135,57609860.1137362
3420,57609860.1137362
3738,6791184.0
2,2, 1, 2, 0, 6, 0.00,60.00,Monday
135,57609860.1137362
3420,57609860.1137362
3738,6791184.0
2,2, 1, 2, 0, 7, 0.00,60.00,Monday
135,137296304.18115827
3420,137296304.18115827
3738,6791184.0
2,2, 1, 2, 0, 8, 0.00,60.00,Monday
135,228091710.0508986
3420,228091710.0508986
3738,147577462.2909266
2,2, 1, 2, 0, 9, 0.00,60.00,Monday
135,310928566.17060184
3420,310928566.17060184
3738,92519461.25435951
2,2, 1, 2, 0,10, 0.00,60.00,Monday
135,270881865.80048376
3420,270881865.8004837
3738,64104549.62432517
2,2, 1, 2, 0,11, 0.00,60.00,Monday
135,266825978.4651965
3420,266825978.46519646
3738,26002213.802575894
2,2, 1, 2, 0,12, 0.00,60.00,Monday
135,286238561.40794075
3420,286238561.40794075
3738,20876803.489152778
2,2, 1, 2, 0,13, 0.00,60.00,Monday
135,288356518.2716734
3420,288356518.2716734
3738,31334359.881758783
2,2, 1, 2, 0,14, 0.00,60.00,Monday
135,302975525.7747885
3420,302975525.7747885
3738,26165959.05339483
2,2, 1, 2, 0,15, 0.00,60.00,Monday
135,294972021.31000483
3420,294972021.3100048
3738,16663111.546087924
2,2, 1, 2, 0,16, 0.00,60.00,Monday
135,299410344.29420304
3420,299410344.29420304
3738,19076358.658423744
2,2, 1, 2, 0,17, 0.00,60.00,Monday
135,298389053.9474881
3420,298389053.94748807
3738,20696594.044879485
2,2, 1, 2, 0,18, 0.00,60.00,Monday
135,237624719.45918894
3420,237624719.45918894
3738,24658594.589504886
2,2, 1, 2, 0,19, 0.00,60.00,Monday
135,131458533.53394982
3420,131458533.5339498
3738,57891981.091293484
2,2, 1, 2, 0,20, 0.00,60.00,Monday
135,116433380.00818448
3420,116433380.00818448
3738,72469446.82990465
2,2, 1, 2, 0,21, 0.00,60.00,Monday
135,107904137.86016025
3420,107904137.86016026
3738,84419336.25488532
2,2, 1, 2, 0,22, 0.00,60.00,Monday
135,105912372.76109348
3420,105912372.7610935
3738,86039928.28257765
2,2, 1, 2, 0,23, 0.00,60.00,Monday
135,77772390.65670998
3420,77772390.65670998
3738,6791184.0
2,2, 1, 2, 0,24, 0.00,60.00,Monday
135,72442274.24247962
3420,72442274.24247962
3738,6791184.0
2,3, 1, 3, 0, 1, 0.00,60.00,Tuesday
135,57996196.7332391
3420,57996196.7332391
3738,6791184.0
2,3, 1, 3, 0, 2, 0.00,60.00,Tuesday
135,57609860.1137362
3420,57609860.1137362
3738,6791184.0
2,3, 1, 3, 0, 3, 0.00,60.00,Tuesday
135,57609860.1137362
3420,57609860.1137362
3738,6791184.0
2,3, 1, 3, 0, 4, 0.00,60.00,Tuesday
135,57609860.1137362
3420,57609860.1137362
3738,6791184.0
2,3, 1, 3, 0, 5, 0.00,60.00,Tuesday
135,57609860.1137362
3420,57609860.1137362
3738,6791184.0
2,3, 1, 3, 0, 6, 0.00,60.00,Tuesday
135,57609860.1137362
3420,57609860.1137362
3738,6791184.0
2,3, 1, 3, 0, 7, 0.00,60.00,Tuesday
135,112102812.71491654
3420,112102812.71491656
3738,6791184.0
2,3, 1, 3, 0, 8, 0.00,60.00,Tuesday
135,192408370.01605332
3420,192408370.0160533
3738,131270974.34457883
2,3, 1, 3, 0, 9, 0.00,60.00,Tuesday
135,311377468.3005356
3420,311377468.30053556
3738,77011765.8614414
2,3, 1, 3, 0,10, 0.00,60.00,Tuesday
135,275991645.6933976
3420,275991645.6933976
3738,37032265.1894799
2,3, 1, 3, 0,11, 0.00,60.00,Tuesday
135,275027993.38438785
3420,275027993.38438785
3738,12356874.77290462
2,3, 1, 3, 0,12, 0.00,60.00,Tuesday
135,293027824.6580732
3420,293027824.6580732
3738,23129488.975600578
2,3, 1, 3, 0,13, 0.00,60.00,Tuesday
135,294632280.35879445
3420,294632280.3587944
3738,31312393.36103994
2,3, 1, 3, 0,14, 0.00,60.00,Tuesday
135,311631511.72635615
3420,311631511.72635615
3738,26179763.885574874
2,3, 1, 3, 0,15, 0.00,60.00,Tuesday
135,297469091.1916596
3420,297469091.1916596
3738,20133738.27406303
2,3, 1, 3, 0,16, 0.00,60.00,Tuesday
135,301048099.2336246
3420,301048099.2336245
3738,15641933.428970817
2,3, 1, 3, 0,17, 0.00,60.00,Tuesday
135,304381337.59458923
3420,304381337.5945892
3738,21131219.676558174
2,3, 1, 3, 0,18, 0.00,60.00,Tuesday
135,241555527.0717467
3420,241555527.07174665
3738,18150591.1484727
2,3, 1, 3, 0,19, 0.00,60.00,Tuesday
135,131866343.2953921
3420,131866343.2953921
3738,35254282.540325396
2,3, 1, 3, 0,20, 0.00,60.00,Tuesday
135,113569604.38930234
3420,113569604.38930234
3738,55618240.98964385
2,3, 1, 3, 0,21, 0.00,60.00,Tuesday
135,103004750.63109705
3420,103004750.63109705
3738,64520228.30643645
2,3, 1, 3, 0,22, 0.00,60.00,Tuesday
135,100314428.85157591
3420,100314428.85157594
3738,93974720.59014836
2,3, 1, 3, 0,23, 0.00,60.00,Tuesday
135,77772390.65670998
3420,77772390.65670998
3738,6791184.0
2,3, 1, 3, 0,24, 0.00,60.00,Tuesday
135,72442274.24247962
3420,72442274.24247962
3738,6791184.0
2,4, 1, 4, 0, 1, 0.00,60.00,Wednesday
135,57996196.7332391
3420,57996196.7332391
3738,6791184.0
2,4, 1, 4, 0, 2, 0.00,60.00,Wednesday
135,57609860.1137362
3420,57609860.1137362
3738,6791184.0
2,4, 1, 4, 0, 3, 0.00,60.00,Wednesday
135,57609860.1137362
3420,57609860.1137362
3738,6791184.0
2,4, 1, 4, 0, 4, 0.00,60.00,Wednesday
135,57609860.1137362
3420,57609860.1137362
3738,6791184.0
2,4, 1, 4, 0, 5, 0.00,60.00,Wednesday
135,57609860.1137362
3420,57609860.1137362
3738,6791184.0
2,4, 1, 4, 0, 6, 0.00,60.00,Wednesday
135,57609860.1137362
3420,57609860.1137362
3738,6791184.0
2,4, 1, 4, 0, 7, 0.00,60.00,Wednesday
135,107774072.52574906
3420,107774072.52574907
3738,6791184.0
2,4, 1, 4, 0, 8, 0.00,60.00,Wednesday
135,190977085.51973185
3420,190977085.51973185
3738,152549075.17350966
2,4, 1, 4, 0, 9, 0.00,60.00,Wednesday
135,309442795.73769474
3420,309442795.7376947
3738,90061261.93808414
2,4, 1, 4, 0,10, 0.00,60.00,Wednesday
135,270429451.7583626
3420,270429451.7583626
3738,61809308.47868821
2,4, 1, 4, 0,11, 0.00,60.00,Wednesday
135,264628704.1230281
3420,264628704.1230281
3738,42705920.408390485
2,4, 1, 4, 0,12, 0.00,60.00,Wednesday
135,278718611.7130605
3420,278718611.7130605
3738,27237330.092575423
2,4, 1, 4, 0,13, 0.00,60.00,Wednesday
135,284511525.7473638
3420,284511525.7473638
3738,31351205.050687008
2,4, 1, 4, 0,14, 0.00,60.00,Wednesday
135,289894129.4150424
3420,289894129.4150424
3738,26189702.813008703
2,4, 1, 4, 0,15, 0.00,60.00,Wednesday
135,275182970.10820526
3420,275182970.1082052
3738,20162358.474987995
2,4, 1, 4, 0,16, 0.00,60.00,Wednesday
135,274853282.9723808
3420,274853282.97238076
3738,15652705.375646915
2,4, 1, 4, 0,17, 0.00,60.00,Wednesday
135,294556686.5135559
3420,294556686.5135559
3738,25318578.899761163
2,4, 1, 4, 0,18, 0.00,60.00,Wednesday
135,251267316.60602063
3420,251267316.60602063
3738,20631977.949197866
2,4, 1, 4, 0,19, 0.00,60.00,Wednesday
135,131888589.07372302
3420,131888589.07372302
3738,37714540.541103825
2,4, 1, 4, 0,20, 0.00,60.00,Wednesday
135,113569604.38930234
3420,113569604.38930234
3738,52554108.24589509
2,4, 1, 4, 0,21, 0.00,60.00,Wednesday
135,102913361.90140839
3420,102913361.90140839
3738,65833880.561717674
2,4, 1, 4, 0,22, 0.00,60.00,Wednesday
135,99099294.84500085
3420,99099294.84500086
3738,77140171.07041092
2,4, 1, 4, 0,23, 0.00,60.00,Wednesday
135,77772390.65670998
3420,77772390.65670998
3738,6791184.0
2,4, 1, 4, 0,24, 0.00,60.00,Wednesday
135,72442274.24247962
3420,72442274.24247962
3738,6791184.0
2,5, 1, 5, 0, 1, 0.00,60.00,Thursday
135,57996196.7332391
3420,57996196.7332391
3738,6791184.0
2,5, 1, 5, 0, 2, 0.00,60.00,Thursday
135,57609860.1137362
3420,57609860.1137362
3738,6791184.0
2,5, 1, 5, 0, 3, 0.00,60.00,Thursday
135,57609860.1137362
3420,57609860.1137362
3738,6791184.0
2,5, 1, 5, 0, 4, 0.00,60.00,Thursday
135,57609860.1137362
3420,57609860.1137362
3738,6791184.0
2,5, 1, 5, 0, 5, 0.00,60.00,Thursday
135,57609860.1137362
3420,57609860.1137362
3738,6791184.0
2,5, 1, 5, 0, 6, 0.00,60.00,Thursday
135,57609860.1137362
3420,57609860.1137362
3738,6791184.0
2,5, 1, 5, 0, 7, 0.00,60.00,Thursday
135,100664134.13277073
3420,100664134.13277075
3738,6791184.0
2,5, 1, 5, 0, 8, 0.00,60.00,Thursday
135,179218138.09158877
3420,179218138.09158877
3738,123385563.81631427
2,5, 1, 5, 0, 9, 0.00,60.00,Thursday
135,310140494.9575479
3420,310140494.9575479
3738,66366961.95607806
2,5, 1, 5, 0,10, 0.00,60.00,Thursday
135,278302077.47215706
3420,278302077.47215706
3738,21145617.81198257
2,5, 1, 5, 0,11, 0.00,60.00,Thursday
135,277656547.2238385
3420,277656547.22383845
3738,11332705.54928314
2,5, 1, 5, 0,12, 0.00,60.00,Thursday
135,290287840.52319187
3420,290287840.5231918
3738,20890782.0365476
2,5, 1, 5, 0,13, 0.00,60.00,Thursday
135,290349019.8888911
3420,290349019.8888911
3738,31320858.562127728
2,5, 1, 5, 0,14, 0.00,60.00,Thursday
135,311941214.5494007
3420,311941214.54940075
3738,26189007.473221518
2,5, 1, 5, 0,15, 0.00,60.00,Thursday
135,305260067.94258845
3420,305260067.9425884
3738,20203910.290040478
2,5, 1, 5, 0,16, 0.00,60.00,Thursday
135,309027881.6614876
3420,309027881.6614876
3738,15641467.481528439
2,5, 1, 5, 0,17, 0.00,60.00,Thursday
135,312443656.95504934
3420,312443656.9550493
3738,25322054.82401494
2,5, 1, 5, 0,18, 0.00,60.00,Thursday
135,244621806.36539933
3420,244621806.36539933
3738,11106437.11808634
2,5, 1, 5, 0,19, 0.00,60.00,Thursday
135,132384235.43671827
3420,132384235.43671827
3738,18515542.883175965
2,5, 1, 5, 0,20, 0.00,60.00,Thursday
135,113569604.38930234
3420,113569604.38930234
3738,38182825.55833641
2,5, 1, 5, 0,21, 0.00,60.00,Thursday
135,102910895.06207252
3420,102910895.06207252
3738,50500896.487481296
2,5, 1, 5, 0,22, 0.00,60.00,Thursday
135,98331323.74705626
3420,98331323.74705628
3738,64229737.95698746
2,5, 1, 5, 0,23, 0.00,60.00,Thursday
135,77772390.65670998
3420,77772390.65670998
3738,6791184.0
2,5, 1, 5, 0,24, 0.00,60.00,Thursday
135,72442274.24247962
3420,72442274.24247962
3738,6791184.0
2,6, 1, 6, 0, 1, 0.00,60.00,Friday
135,57996196.7332391
3420,57996196.7332391
3738,6791184.0
2,6, 1, 6, 0, 2, 0.00,60.00,Friday
135,57609860.1137362
3420,57609860.1137362
3738,6791184.0
2,6, 1, 6, 0, 3, 0.00,60.00,Friday
135,57609860.1137362
3420,57609860.1137362
3738,6791184.0
2,6, 1, 6, 0, 4, 0.00,60.00,Friday
135,57609860.1137362
3420,57609860.1137362
3738,6791184.0
2,6, 1, 6, 0, 5, 0.00,60.00,Friday
135,57609860.1137362
3420,57609860.1137362
3738,6791184.0
2,6, 1, 6, 0, 6, 0.00,60.00,Friday
135,57609860.1137362
3420,57609860.1137362
3738,6791184.0
2,6, 1, 6, 0, 7, 0.00,60.00,Friday
135,102997473.54978645
3420,102997473.54978645
3738,6791184.0
2,6, 1, 6, 0, 8, 0.00,60.00,Friday
135,187642027.31675303
3420,187642027.31675303
3738,108544545.07472214
2,6, 1, 6, 0, 9, 0.00,60.00,Friday
135,312570486.1933474
3420,312570486.1933474
3738,74801668.334129
2,6, 1, 6, 0,10, 0.00,60.00,Friday
135,271514245.8283832
3420,271514245.82838315
3738,64986615.31859557
2,6, 1, 6, 0,11, 0.00,60.00,Friday
135,264605139.63422978
3420,264605139.63422975
3738,52597028.45195479
2,6, 1, 6, 0,12, 0.00,60.00,Friday
135,282158131.3327843
3420,282158131.3327843
3738,32424288.38634622
2,6, 1, 6, 0,13, 0.00,60.00,Friday
135,288376377.0433228
3420,288376377.0433228
3738,27930185.607392915
2,6, 1, 6, 0,14, 0.00,60.00,Friday
135,301331472.4658514
3420,301331472.4658514
3738,27524026.579776634
2,6, 1, 6, 0,15, 0.00,60.00,Friday
135,290091990.93747354
3420,290091990.9374735
3738,18943649.80855733
2,6, 1, 6, 0,16, 0.00,60.00,Friday
135,292156850.809219
3420,292156850.80921894
3738,15649003.403275408
2,6, 1, 6, 0,17, 0.00,60.00,Friday
135,304805691.1497541
3420,304805691.14975405
3738,25324746.50604129
2,6, 1, 6, 0,18, 0.00,60.00,Friday
135,251314198.63412893
3420,251314198.63412893
3738,39875033.81218136
2,6, 1, 6, 0,19, 0.00,60.00,Friday
135,131196425.87821385
3420,131196425.87821382
3738,63432745.292473204
2,6, 1, 6, 0,20, 0.00,60.00,Friday
135,113569604.38930234
3420,113569604.38930234
3738,70952395.44261584
2,6, 1, 6, 0,21, 0.00,60.00,Friday
135,103650047.59907265
3420,103650047.59907265
3738,92226436.5025269
2,6, 1, 6, 0,22, 0.00,60.00,Friday
135,100582011.925398
3420,100582011.92539802
3738,94604033.1923861
2,6, 1, 6, 0,23, 0.00,60.00,Friday
135,77772390.65670998
3420,77772390.65670998
3738,6791184.0
2,6, 1, 6, 0,24, 0.00,60.00,Friday
135,72442274.24247962
3420,72442274.24247962
3738,6791184.0
2,7, 1, 7, 0, 1, 0.00,60.00,Saturday
135,46745513.81922844
3420,46745513.81922843
3738,6791184.0
2,7, 1, 7, 0, 2, 0.00,60.00,Saturday
135,46359235.70955593
3420,46359235.709555924
3738,6791184.0
2,7, 1, 7, 0, 3, 0.00,60.00,Saturday
135,46359235.70955593
3420,46359235.709555924
3738,6791184.0
2,7, 1, 7, 0, 4, 0.00,60.00,Saturday
135,46359235.70955593
3420,46359235.709555924
3738,6791184.0
2,7, 1, 7, 0, 5, 0.00,60.00,Saturday
135,46359235.70955593
3420,46359235.709555924
3738,6791184.0
2,7, 1, 7, 0, 6, 0.00,60.00,Saturday
135,46359235.70955593
3420,46359235.709555924
3738,6791184.0
2,7, 1, 7, 0, 7, 0.00,60.00,Saturday
135,111537984.80521819
3420,111537984.80521819
3738,6791184.0
2,7, 1, 7, 0, 8, 0.00,60.00,Saturday
135,139778307.26292747
3420,139778307.2629275
3738,121929142.4092646
2,7, 1, 7, 0, 9, 0.00,60.00,Saturday
135,133022534.13817912
3420,133022534.13817912
3738,100877702.41795765
2,7, 1, 7, 0,10, 0.00,60.00,Saturday
135,134989156.89023167
3420,134989156.89023164
3738,84020639.46384229
2,7, 1, 7, 0,11, 0.00,60.00,Saturday
135,127935103.19065316
3420,127935103.19065318
3738,53130924.09803118
2,7, 1, 7, 0,12, 0.00,60.00,Saturday
135,136361558.56334904
3420,136361558.56334904
3738,16698636.27501436
2,7, 1, 7, 0,13, 0.00,60.00,Saturday
135,96422792.81968395
3420,96422792.81968395
3738,7677077.727179049
2,7, 1, 7, 0,14, 0.00,60.00,Saturday
135,86593630.16882959
3420,86593630.16882959
3738,6791184.0
2,7, 1, 7, 0,15, 0.00,60.00,Saturday
135,80777988.06353001
3420,80777988.06353001
3738,6791184.0
2,7, 1, 7, 0,16, 0.00,60.00,Saturday
135,76233398.28453368
3420,76233398.28453368
3738,10830551.372823833
2,7, 1, 7, 0,17, 0.00,60.00,Saturday
135,78533483.73235938
3420,78533483.7323594
3738,20173207.659653913
2,7, 1, 7, 0,18, 0.00,60.00,Saturday
135,83077160.33306564
3420,83077160.33306564
3738,37940152.64761352
2,7, 1, 7, 0,19, 0.00,60.00,Saturday
135,66276703.53612528
3420,66276703.53612528
3738,6791184.0
2,7, 1, 7, 0,20, 0.00,60.00,Saturday
135,49290893.81922844
3420,49290893.81922844
3738,6791184.0
2,7, 1, 7, 0,21, 0.00,60.00,Saturday
135,48904615.70955593
3420,48904615.70955593
3738,6791184.0
2,7, 1, 7, 0,22, 0.00,60.00,Saturday
135,48904615.70955593
3420,48904615.70955593
3738,6791184.0
2,7, 1, 7, 0,23, 0.00,60.00,Saturday
135,48904615.70955593
3420,48904615.70955593
3738,6791184.0
2,7, 1, 7, 0,24, 0.00,60.00,Saturday
135,48904615.70955593
3420,48904615.70955593
3738,6791184.0
2,8, 1, 8, 0, 1, 0.00,60.00,Sunday
135,46359235.70955593
3420,46359235.709555924
3738,6791184.0
2,8, 1, 8, 0, 2, 0.00,60.00,Sunday
135,46359235.70955593
3420,46359235.709555924
3738,6791184.0
2,8, 1, 8, 0, 3, 0.00,60.00,Sunday
135,46359235.70955593
3420,46359235.709555924
3738,6791184.0
2,8, 1, 8, 0, 4, 0.00,60.00,Sunday
135,46359235.70955593
3420,46359235.709555924
3738,6791184.0
2,8, 1, 8, 0, 5, 0.00,60.00,Sunday
135,46359235.70955593
3420,46359235.709555924
3738,6791184.0
2,8, 1, 8, 0, 6, 0.00,60.00,Sunday
135,46359235.70955593
3420,46359235.709555924
3738,6791184.0
2,8, 1, 8, 0, 7, 0.00,60.00,Sunday
135,66032185.73006148
3420,66032185.73006148
3738,6791184.0
2,8, 1, 8, 0, 8, 0.00,60.00,Sunday
135,53323580.330645084
3420,53323580.330645084
3738,6791184.0
2,8, 1, 8, 0, 9, 0.00,60.00,Sunday
135,46344166.24829911
3420,46344166.24829911
3738,6791184.0
2,8, 1, 8, 0,10, 0.00,60.00,Sunday
135,46288812.51597283
3420,46288812.51597283
3738,6791184.0
2,8, 1, 8, 0,11, 0.00,60.00,Sunday
135,47483989.77107635
3420,47483989.771076344
3738,6791184.0
2,8, 1, 8, 0,12, 0.00,60.00,Sunday
135,51178631.67262021
3420,51178631.67262021
3738,6791184.0
2,8, 1, 8, 0,13, 0.00,60.00,Sunday
135,54217843.714168094
3420,54217843.7141681
3738,6791184.0
2,8, 1, 8, 0,14, 0.00,60.00,Sunday
135,53714680.756687716
3420,53714680.756687716
3738,6791184.0
2,8, 1, 8, 0,15, 0.00,60.00,Sunday
135,54244041.672898374
3420,54244041.67289839
3738,6791184.0
2,8, 1, 8, 0,16, 0.00,60.00,Sunday
135,53528038.029933766
3420,53528038.02993377
3738,6791184.0
2,8, 1, 8, 0,17, 0.00,60.00,Sunday
135,49371975.328517206
3420,49371975.32851721
3738,6791184.0
2,8, 1, 8, 0,18, 0.00,60.00,Sunday
135,66276671.30593526
3420,66276671.30593526
3738,6791184.0
2,8, 1, 8, 0,19, 0.00,60.00,Sunday
135,57105773.81922845
3420,57105773.81922844
3738,6791184.0
2,8, 1, 8, 0,20, 0.00,60.00,Sunday
135,48904615.70955593
3420,48904615.70955593
3738,6791184.0
2,8, 1, 8, 0,21, 0.00,60.00,Sunday
135,48904615.70955593
3420,48904615.70955593
3738,6791184.0
2,8, 1, 8, 0,22, 0.00,60.00,Sunday
135,48904615.70955593
3420,48904615.70955593
3738,6791184.0
2,8, 1, 8, 0,23, 0.00,60.00,Sunday
135,48904615.70955593
3420,48904615.70955593
3738,6791184.0
2,8, 1, 8, 0,24, 0.00,60.00,Sunday
135,48904615.70955593
3420,48904615.70955593
3738,6791184.0
2,9, 1, 9, 0, 1, 0.00,60.00,Monday
135,57609860.1137362
3420,57609860.1137362
3738,6791184.0
2,9, 1, 9, 0, 2, 0.00,60.00,Monday
135,57609860.1137362
3420,57609860.1137362
3738,6791184.0
2,9, 1, 9, 0, 3, 0.00,60.00,Monday
135,57609860.1137362
3420,57609860.1137362
3738,6791184.0
2,9, 1, 9, 0, 4, 0.00,60.00,Monday
135,57609860.1137362
3420,57609860.1137362
3738,6791184.0
2,9, 1, 9, 0, 5, 0.00,60.00,Monday
135,57609860.1137362
3420,57609860.1137362
3738,6791184.0
2,9, 1, 9, 0, 6, 0.00,60.00,Monday
135,57609860.1137362
3420,57609860.1137362
3738,6791184.0
2,9, 1, 9, 0, 7, 0.00,60.00,Monday
135,129247047.46749742
3420,129247047.46749742
3738,6791184.0
2,9, 1, 9, 0, 8, 0.00,60.00,Monday
135,219484717.05742615
3420,219484717.05742615
3738,138237971.68096617
2,9, 1, 9, 0, 9, 0.00,60.00,Monday
135,314631192.242455
3420,314631192.242455
3738,84383741.53608088
2,9, 1, 9, 0,10, 0.00,60.00,Monday
135,274449443.5990202
3420,274449443.59902024
3738,59196075.3434252
2,9, 1, 9, 0,11, 0.00,60.00,Monday
135,269915295.1978779
3420,269915295.1978778
3738,23530649.959029544
2,9, 1, 9, 0,12, 0.00,60.00,Monday
135,287597988.2131665
3420,287597988.2131665
3738,20903862.25572592
2,9, 1, 9, 0,13, 0.00,60.00,Monday
135,290546865.59191227
3420,290546865.59191227
3738,31355574.738511696
2,9, 1, 9, 0,14, 0.00,60.00,Monday
135,306531508.42372954
3420,306531508.42372954
3738,26214925.04692206
2,9, 1, 9, 0,15, 0.00,60.00,Monday
135,300355887.1390426
3420,300355887.1390425
3738,20171150.282495573
2,9, 1, 9, 0,16, 0.00,60.00,Monday
135,309246605.46047205
3420,309246605.46047205
3738,15658116.563005317
2,9, 1, 9, 0,17, 0.00,60.00,Monday
135,320545129.4652194
3420,320545129.4652194
3738,25336593.964973338
2,9, 1, 9, 0,18, 0.00,60.00,Monday
135,242045697.46965343
3420,242045697.46965343
3738,13252445.705183249
2,9, 1, 9, 0,19, 0.00,60.00,Monday
135,131815294.08442721
3420,131815294.08442721
3738,34572927.1858647
2,9, 1, 9, 0,20, 0.00,60.00,Monday
135,113700088.80017757
3420,113700088.80017757
3738,44165119.01359992
2,9, 1, 9, 0,21, 0.00,60.00,Monday
135,104321458.16706644
3420,104321458.16706645
3738,33948429.17118472
2,9, 1, 9, 0,22, 0.00,60.00,Monday
135,101333000.80000418
3420,101333000.80000418
3738,41093765.222238876
2,9, 1, 9, 0,23, 0.00,60.00,Monday
135,77772390.65670998
3420,77772390.65670998
3738,6791184.0
2,9, 1, 9, 0,24, 0.00,60.00,Monday
135,72442274.24247962
3420,72442274.24247962
3738,6791184.0
2,10, 1,10, 0, 1, 0.00,60.00,Tuesday
135,57996196.7332391
3420,57996196.7332391
3738,6791184.0
2,10, 1,10, 0, 2, 0.00,60.00,Tuesday
135,57609860.1137362
3420,57609860.1137362
3738,6791184.0
2,10, 1,10, 0, 3, 0.00,60.00,Tuesday
135,57609860.1137362
3420,57609860.1137362
3738,6791184.0
2,10, 1,10, 0, 4, 0.00,60.00,Tuesday
135,57609860.1137362
3420,57609860.1137362
3738,6791184.0
2,10, 1,10, 0, 5, 0.00,60.00,Tuesday
135,57609860.1137362
3420,57609860.1137362
3738,6791184.0
2,10, 1,10, 0, 6, 0.00,60.00,Tuesday
135,57609860.1137362
3420,57609860.1137362
3738,6791184.0
2,10, 1,10, 0, 7, 0.00,60.00,Tuesday
135,113503864.91743866
3420,113503864.91743866
3738,6791184.0
2,10, 1,10, 0, 8, 0.00,60.00,Tuesday
135,195845243.03553453
3420,195845243.0355345
3738,152419350.46287552
2,10, 1,10, 0, 9, 0.00,60.00,Tuesday
135,308489030.3187329
3420,308489030.3187329
3738,97859053.516529
2,10, 1,10, 0,10, 0.00,60.00,Tuesday
135,268966854.8453548
3420,268966854.84535474
3738,76721491.00018583
2,10, 1,10, 0,11, 0.00,60.00,Tuesday
135,261362301.58734804
3420,261362301.587348
3738,66521801.562597215
2,10, 1,10, 0,12, 0.00,60.00,Tuesday
135,271167190.068764
3420,271167190.068764
3738,77373910.72938244
2,10, 1,10, 0,13, 0.00,60.00,Tuesday
135,290924039.90248454
3420,290924039.90248454
3738,58687830.15367195
2,10, 1,10, 0,14, 0.00,60.00,Tuesday
135,287103627.57853884
3420,287103627.57853884
3738,36853945.44863221
2,10, 1,10, 0,15, 0.00,60.00,Tuesday
135,279257725.3099131
3420,279257725.3099131
3738,16109051.870537557
2,10, 1,10, 0,16, 0.00,60.00,Tuesday
135,281547187.71308094
3420,281547187.7130809
3738,17408061.078286096
2,10, 1,10, 0,17, 0.00,60.00,Tuesday
135,293425747.5800082
3420,293425747.58000815
3738,23508577.30337999
2,10, 1,10, 0,18, 0.00,60.00,Tuesday
135,250345703.6907288
3420,250345703.69072884
3738,40609832.40494935
2,10, 1,10, 0,19, 0.00,60.00,Tuesday
135,131079577.85489666
3420,131079577.85489666
3738,81748164.84398969
2,10, 1,10, 0,20, 0.00,60.00,Tuesday
135,114019570.29797497
3420,114019570.29797497
3738,85569227.8457478
2,10, 1,10, 0,21, 0.00,60.00,Tuesday
135,105034402.9019729
3420,105034402.90197292
3738,94999928.08011694
2,10, 1,10, 0,22, 0.00,60.00,Tuesday
135,104117588.91696519
3420,104117588.91696522
3738,107615597.12966827
2,10, 1,10, 0,23, 0.00,60.00,Tuesday
135,77772390.65670998
3420,77772390.65670998
3738,6791184.0
2,10, 1,10, 0,24, 0.00,60.00,Tuesday
135,72442274.24247962
3420,72442274.24247962
3738,6791184.0
2,11, 1,11, 0, 1, 0.00,60.00,Wednesday
135,57996196.7332391
3420,57996196.7332391
3738,6791184.0
2,11, 1,11, 0, 2, 0.00,60.00,Wednesday
135,57609860.1137362
3420,57609860.1137362
3738,6791184.0
2,11, 1,11, 0, 3, 0.00,60.00,Wednesday
135,57609860.1137362
3420,57609860.1137362
3738,6791184.0
2,11, 1,11, 0, 4, 0.00,60.00,Wednesday
135,57609860.1137362
3420,57609860.1137362
3738,6791184.0
2,11, 1,11, 0, 5, 0.00,60.00,Wednesday
135,57609860.1137362
3420,57609860.1137362
3738,6791184.0
2,11, 1,11, 0, 6, 0.00,60.00,Wednesday
135,57609860.1137362
3420,57609860.1137362
3738,6791184.0
2,11, 1,11, 0, 7, 0.00,60.00,Wednesday
135,105377989.64044514
3420,105377989.64044514
3738,6791184.0
2,11, 1,11, 0, 8, 0.00,60.00,Wednesday
135,181383495.43143937
3420,181383495.43143937
3738,56441496.473070346
2,11, 1,11, 0, 9, 0.00,60.00,Wednesday
135,301849788.0144485
3420,301849788.0144485
3738,38045519.64516602
2,11, 1,11, 0,10, 0.00,60.00,Wednesday
135,267497005.10396758
3420,267497005.10396755
3738,18453964.96014103
2,11, 1,11, 0,11, 0.00,60.00,Wednesday
135,261897471.45369095
3420,261897471.4536909
3738,7207489.441983417
2,11, 1,11, 0,12, 0.00,60.00,Wednesday
135,269828591.4247773
3420,269828591.4247773
3738,25582476.684451453
2,11, 1,11, 0,13, 0.00,60.00,Wednesday
135,269736706.20195234
3420,269736706.20195234
3738,31415548.319707517
2,11, 1,11, 0,14, 0.00,60.00,Wednesday
135,272905641.4324491
3420,272905641.43244904
3738,26221659.136098746
2,11, 1,11, 0,15, 0.00,60.00,Wednesday
135,259158895.73220792
3420,259158895.73220792
3738,20140924.50484421
2,11, 1,11, 0,16, 0.00,60.00,Wednesday
135,260005459.32164052
3420,260005459.32164052
3738,15653293.079052769
2,11, 1,11, 0,17, 0.00,60.00,Wednesday
135,277476812.29800385
3420,277476812.2980038
3738,28930156.398665763
2,11, 1,11, 0,18, 0.00,60.00,Wednesday
135,241541493.91199866
3420,241541493.9119987
3738,37012094.01844479
2,11, 1,11, 0,19, 0.00,60.00,Wednesday
135,131513531.20571521
3420,131513531.20571521
3738,55614731.443579994
2,11, 1,11, 0,20, 0.00,60.00,Wednesday
135,113569604.38930234
3420,113569604.38930234
3738,71022933.56025687
2,11, 1,11, 0,21, 0.00,60.00,Wednesday
135,103069236.29993518
3420,103069236.29993518
3738,76303573.27673097
2,11, 1,11, 0,22, 0.00,60.00,Wednesday
135,100034341.82435049
3420,100034341.82435049
3738,92987531.4488177
2,11, 1,11, 0,23, 0.00,60.00,Wednesday
135,77772390.65670998
3420,77772390.65670998
3738,6791184.0
2,11, 1,11, 0,24, 0.00,60.00,Wednesday
135,72442274.24247962
3420,72442274.24247962
3738,6791184.0
2,12, 1,12, 0, 1, 0.00,60.00,Thursday
135,57996196.7332391
3420,57996196.7332391
3738,6791184.0
2,12, 1,12, 0, 2, 0.00,60.00,Thursday
135,57609860.1137362
3420,57609860.1137362
3738,6791184.0
2,12, 1,12, 0, 3, 0.00,60.00,Thursday
135,57609860.1137362
3420,57609860.1137362
3738,6791184.0
2,12, 1,12, 0, 4, 0.00,60.00,Thursday
135,57609860.1137362
3420,57609860.1137362
3738,6791184.0
2,12, 1,12, 0, 5, 0.00,60.00,Thursday
135,57609860.1137362
3420,57609860.1137362
3738,6791184.0
2,12, 1,12, 0, 6, 0.00,60.00,Thursday
135,57609860.1137362
3420,57609860.1137362
3738,6791184.0
2,12, 1,12, 0, 7, 0.00,60.00,Thursday
135,109706818.45910566
3420,109706818.45910567
3738,6791184.0
2,12, 1,12, 0, 8, 0.00,60.00,Thursday
135,189996220.670867
3420,189996220.67086697
3738,141403945.0966813
2,12, 1,12, 0, 9, 0.00,60.00,Thursday
135,310141879.03108424
3420,310141879.03108424
3738,92008748.428525
2,12, 1,12, 0,10, 0.00,60.00,Thursday
135,268671451.0590254
3420,268671451.0590254
3738,79640316.2953119
2,12, 1,12, 0,11, 0.00,60.00,Thursday
135,262454824.22281063
3420,262454824.2228106
3738,63048354.19285066
2,12, 1,12, 0,12, 0.00,60.00,Thursday
135,274621927.7995813
3420,274621927.7995813
3738,57030074.63607748
2,12, 1,12, 0,13, 0.00,60.00,Thursday
135,293377129.9217122
3420,293377129.9217122
3738,49164157.00000338
2,12, 1,12, 0,14, 0.00,60.00,Thursday
135,285407416.0716958
3420,285407416.0716958
3738,43862031.867521465
2,12, 1,12, 0,15, 0.00,60.00,Thursday
135,269875332.91960573
3420,269875332.91960573
3738,25441953.499123074
2,12, 1,12, 0,16, 0.00,60.00,Thursday
135,269675322.85050327
3420,269675322.8505032
3738,33854118.37328891
2,12, 1,12, 0,17, 0.00,60.00,Thursday
135,288269510.29981005
3420,288269510.29981
3738,41265610.920445934
2,12, 1,12, 0,18, 0.00,60.00,Thursday
135,250076598.61977887
3420,250076598.61977887
3738,55992367.3640552
2,12, 1,12, 0,19, 0.00,60.00,Thursday
135,133305125.92653461
3420,133305125.92653458
3738,83653405.02867867
2,12, 1,12, 0,20, 0.00,60.00,Thursday
135,113643943.78926966
3420,113643943.78926966
3738,81088603.30831288
2,12, 1,12, 0,21, 0.00,60.00,Thursday
135,104571384.2566434
3420,104571384.25664341
3738,84744598.00461257
2,12, 1,12, 0,22, 0.00,60.00,Thursday
135,101764927.1502387
3420,101764927.1502387
3738,87123444.0832321
2,12, 1,12, 0,23, 0.00,60.00,Thursday
135,77772390.65670998
3420,77772390.65670998
3738,6791184.0
2,12, 1,12, 0,24, 0.00,60.00,Thursday
135,72442274.24247962
3420,72442274.24247962
3738,6791184.0
2,13, 1,13, 0, 1, 0.00,60.00,Friday
135,57996196.7332391
3420,57996196.7332391
3738,6791184.0