Program Version,EnergyPlus, Version 9.6.0-f420c06a69, YMD=2022.07.16 15:15
1,5,Environment Title[],Latitude[deg],Longitude[deg],Time Zone[],Elevation[m]
2,8,Day of Simulation[],Month[],Day of Month[],DST Indicator[1=yes 0=no],Hour[],StartMinute[],EndMinute[],DayType
3,5,Cumulative Day of Simulation[],Month[],Day of Month[],DST Indicator[1=yes 0=no],DayType  ! When Daily Meters Requested
4,2,Cumulative Days of Simulation[],Month[]  ! When Monthly Meters Requested
5,1,Cumulative Days of Simulation[] ! When Run Period Meters Requested
6,1,Calendar Year of Simulation[] ! When Annual Meters Requested
135,1,Electricity:Facility [J] !Hourly
3420,1,ElectricityNet:Facility [J] !Hourly
3738,1,NaturalGas:Facility [J] !Hourly
End of Data Dictionary
1,RUNPERIOD 1,  35.04,-106.62,  -7.00,1619.00
2,1, 1, 1, 0, 1, 0.00,60.00,Holiday
135,46359074.93593144
3420,46359074.93593143
3738,6791184.0
2,1, 1, 1, 0, 2, 0.00,60.00,Holiday
135,46359235.70955593
3420,46359235.709555924
3738,6791184.0
2,1, 1, 1, 0, 3, 0.00,60.00,Holiday
135,46359235.70955593
3420,46359235.709555924
3738,6791184.0
2,1, 1, 1, 0, 4, 0.00,60.00,Holiday
135,46359235.70955593
3420,46359235.709555924
3738,6791184.0
2,1, 1, 1, 0, 5, 0.00,60.00,Holiday
135,46359235.70955593
3420,46359235.709555924
3738,6791184.0
2,1, 1, 1, 0, 6, 0.00,60.00,Holiday
135,46359235.70955593
3420,46359235.709555924
3738,6791184.0
2,1, 1, 1, 0, 7, 0.00,60.00,Holiday
135,66032185.73006148
3420,66032185.73006148
3738,6791184.0
2,1, 1, 1, 0, 8, 0.00,60.00,Holiday
135,50074623.774579875
3420,50074623.774579875
3738,6791184.0
2,1, 1, 1, 0, 9, 0.00,60.00,Holiday
135,46351708.9331394
3420,46351708.9331394
3738,6791184.0
2,1, 1, 1, 0,10, 0.00,60.00,Holiday
135,46288813.17904917
3420,46288813.179049164
3738,6791184.0
2,1, 1, 1, 0,11, 0.00,60.00,Holiday
135,51149014.50787013
3420,51149014.50787013
3738,6791184.0
2,1, 1, 1, 0,12, 0.00,60.00,Holiday
135,53542591.30173427
3420,53542591.30173427
3738,6791184.0
2,1, 1, 1, 0,13, 0.00,60.00,Holiday
135,54827857.64153222
3420,54827857.64153222
3738,6791184.0
2,1, 1, 1, 0,14, 0.00,60.00,Holiday
135,61196507.52122828
3420,61196507.5212283
3738,6791184.0
2,1, 1, 1, 0,15, 0.00,60.00,Holiday
135,67239153.60782859
3420,67239153.60782859
3738,6791184.0
2,1, 1, 1, 0,16, 0.00,60.00,Holiday
135,64721412.807741076
3420,64721412.80774109
3738,6791184.0
2,1, 1, 1, 0,17, 0.00,60.00,Holiday
135,55473596.479658276
3420,55473596.479658276
3738,6791184.0
2,1, 1, 1, 0,18, 0.00,60.00,Holiday
135,66905826.86107348
3420,66905826.86107348
3738,6791184.0
2,1, 1, 1, 0,19, 0.00,60.00,Holiday
135,57105773.81922845
3420,57105773.81922844
3738,6791184.0
2,1, 1, 1, 0,20, 0.00,60.00,Holiday
135,48904615.70955593
3420,48904615.70955593
3738,6791184.0
2,1, 1, 1, 0,21, 0.00,60.00,Holiday
135,48904615.70955593
3420,48904615.70955593
3738,6791184.0
2,1, 1, 1, 0,22, 0.00,60.00,Holiday
135,48904615.70955593
3420,48904615.70955593
3738,6791184.0
2,1, 1, 1, 0,23, 0.00,60.00,Holiday
135,48904615.70955593
3420,48904615.70955593
3738,6791184.0
2,1, 1, 1, 0,24, 0.00,60.00,Holiday
135,48904615.70955593
3420,48904615.70955593
3738,6791184.0
2,2, 1, 2, 0, 1, 0.00,60.00,Monday
135,57609860.1137362
3420,57609860.1137362
3738,6791184.0
2,2, 1, 2, 0, 2, 0.00,60.00,Monday
135,57609860.1137362
3420,57609860.1137362
3738,6791184.0
2,2, 1, 2, 0, 3, 0.00,60.00,Monday
135,57609860.1137362
3420,57609860.1137362
3738,6791184.0
2,2, 1, 2, 0, 4, 0.00,60.00,Monday
135,57609860.1137362
3420,57609860.1137362
3738,6791184.0
2,2, 1, 2, 0, 5, 0.00,60.00,Monday
135,57609860.1137362
3420,57609860.1137362
3738,6791184.0
2,2, 1, 2, 0, 6, 0.00,60.00,Monday
135,57609860.1137362
3420,57609860.1137362
3738,6791184.0
2,2, 1, 2, 0, 7, 0.00,60.00,Monday
135,127996825.63454857
3420,127996825.63454857
3738,6791184.0
2,2, 1, 2, 0, 8, 0.00,60.00,Monday
135,215776918.25572556
3420,215776918.25572553
3738,138020718.205081
2,2, 1, 2, 0, 9, 0.00,60.00,Monday
135,308779831.98790205
3420,308779831.98790205
3738,82873177.66038454
2,2, 1, 2, 0,10, 0.00,60.00,Monday
135,272391633.6877966
3420,272391633.68779653
3738,53951717.89646106
2,2, 1, 2, 0,11, 0.00,60.00,Monday
135,270626858.73905873
3420,270626858.73905873
3738,16290746.029742379
2,2, 1, 2, 0,12, 0.00,60.00,Monday
135,289695713.59204376
3420,289695713.59204376
3738,20876788.629584327
2,2, 1, 2, 0,13, 0.00,60.00,Monday
135,291132855.59700644
3420,291132855.59700644
3738,31334466.06780298
2,2, 1, 2, 0,14, 0.00,60.00,Monday
135,308021486.08789706
3420,308021486.08789706
3738,26165957.600102253
2,2, 1, 2, 0,15, 0.00,60.00,Monday
135,301222934.61526537
3420,301222934.6152653
3738,16608219.527592774
2,2, 1, 2, 0,16, 0.00,60.00,Monday
135,306260640.67507416
3420,306260640.67507416
3738,19132384.55082509
2,2, 1, 2, 0,17, 0.00,60.00,Monday
135,303775473.3403636
3420,303775473.34036356
3738,20696667.15605069
2,2, 1, 2, 0,18, 0.00,60.00,Monday
135,238144633.47194412
3420,238144633.4719441
3738,19995254.898005724
2,2, 1, 2, 0,19, 0.00,60.00,Monday
135,130915817.59055667
3420,130915817.59055667
3738,46965666.73843971
2,2, 1, 2, 0,20, 0.00,60.00,Monday
135,114591120.3768551
3420,114591120.3768551
3738,60485811.603654675
2,2, 1, 2, 0,21, 0.00,60.00,Monday
135,105863576.09982648
3420,105863576.09982648
3738,74237317.72791636
2,2, 1, 2, 0,22, 0.00,60.00,Monday
135,103011114.57527736
3420,103011114.57527736
3738,75836107.61545125
2,2, 1, 2, 0,23, 0.00,60.00,Monday
135,77772390.65670998
3420,77772390.65670998
3738,6791184.0
2,2, 1, 2, 0,24, 0.00,60.00,Monday
135,72442274.24247962
3420,72442274.24247962
3738,6791184.0
2,3, 1, 3, 0, 1, 0.00,60.00,Tuesday
135,57996196.7332391
3420,57996196.7332391
3738,6791184.0
2,3, 1, 3, 0, 2, 0.00,60.00,Tuesday
135,57609860.1137362
3420,57609860.1137362
3738,6791184.0
2,3, 1, 3, 0, 3, 0.00,60.00,Tuesday
135,57609860.1137362
3420,57609860.1137362
3738,6791184.0
2,3, 1, 3, 0, 4, 0.00,60.00,Tuesday
135,57609860.1137362
3420,57609860.1137362
3738,6791184.0
2,3, 1, 3, 0, 5, 0.00,60.00,Tuesday
135,57609860.1137362
3420,57609860.1137362
3738,6791184.0
2,3, 1, 3, 0, 6, 0.00,60.00,Tuesday
135,57609860.1137362
3420,57609860.1137362
3738,6791184.0
2,3, 1, 3, 0, 7, 0.00,60.00,Tuesday
135,106931257.37472215
3420,106931257.37472212
3738,6791184.0
2,3, 1, 3, 0, 8, 0.00,60.00,Tuesday
135,184734841.1423446
3420,184734841.1423446
3738,120832959.7297068
2,3, 1, 3, 0, 9, 0.00,60.00,Tuesday
135,312265575.62436616
3420,312265575.62436616
3738,68892671.80928904
2,3, 1, 3, 0,10, 0.00,60.00,Tuesday
135,279812349.24392164
3420,279812349.24392164
3738,27777781.23698724
2,3, 1, 3, 0,11, 0.00,60.00,Tuesday
135,278334900.0313619
3420,278334900.0313619
3738,9295933.261404604
2,3, 1, 3, 0,12, 0.00,60.00,Tuesday
135,290684622.63813865
3420,290684622.63813865
3738,23542259.622301124
2,3, 1, 3, 0,13, 0.00,60.00,Tuesday
135,290073427.60944575
3420,290073427.60944575
3738,31314670.33408197
2,3, 1, 3, 0,14, 0.00,60.00,Tuesday
135,311174944.21262676
3420,311174944.21262676
3738,26173987.99966827
2,3, 1, 3, 0,15, 0.00,60.00,Tuesday
135,304966823.9567958
3420,304966823.95679575
3738,20136318.258841217
2,3, 1, 3, 0,16, 0.00,60.00,Tuesday
135,309054752.76813424
3420,309054752.7681342
3738,15643327.510827746
2,3, 1, 3, 0,17, 0.00,60.00,Tuesday
135,309940042.67176265
3420,309940042.67176265
3738,20680908.056054913
2,3, 1, 3, 0,18, 0.00,60.00,Tuesday
135,242680258.7493111
3420,242680258.7493111
3738,16251871.944199989
2,3, 1, 3, 0,19, 0.00,60.00,Tuesday
135,132069713.17156494
3420,132069713.17156494
3738,26106541.95556266
2,3, 1, 3, 0,20, 0.00,60.00,Tuesday
135,113569604.38930234
3420,113569604.38930234
3738,44462398.210499495
2,3, 1, 3, 0,21, 0.00,60.00,Tuesday
135,102910895.06207252
3420,102910895.06207252
3738,53926673.13748605
2,3, 1, 3, 0,22, 0.00,60.00,Tuesday
135,98770175.473992
3420,98770175.47399203
3738,83388411.44147202
2,3, 1, 3, 0,23, 0.00,60.00,Tuesday
135,77772390.65670998
3420,77772390.65670998
3738,6791184.0
2,3, 1, 3, 0,24, 0.00,60.00,Tuesday
135,72442274.24247962
3420,72442274.24247962
3738,6791184.0
2,4, 1, 4, 0, 1, 0.00,60.00,Wednesday
135,57996196.7332391
3420,57996196.7332391
3738,6791184.0
2,4, 1, 4, 0, 2, 0.00,60.00,Wednesday
135,57609860.1137362
3420,57609860.1137362
3738,6791184.0
2,4, 1, 4, 0, 3, 0.00,60.00,Wednesday
135,57609860.1137362
3420,57609860.1137362
3738,6791184.0
2,4, 1, 4, 0, 4, 0.00,60.00,Wednesday
135,57609860.1137362
3420,57609860.1137362
3738,6791184.0
2,4, 1, 4, 0, 5, 0.00,60.00,Wednesday
135,57609860.1137362
3420,57609860.1137362
3738,6791184.0
2,4, 1, 4, 0, 6, 0.00,60.00,Wednesday
135,57609860.1137362
3420,57609860.1137362
3738,6791184.0
2,4, 1, 4, 0, 7, 0.00,60.00,Wednesday
135,103755454.93082415
3420,103755454.93082415
3738,6791184.0
2,4, 1, 4, 0, 8, 0.00,60.00,Wednesday
135,184491004.4643848
3420,184491004.4643848
3738,139683752.67577988
2,4, 1, 4, 0, 9, 0.00,60.00,Wednesday
135,309257276.77714854
3420,309257276.7771486
3738,83095029.78652705
2,4, 1, 4, 0,10, 0.00,60.00,Wednesday
135,272185113.924669
3420,272185113.924669
3738,54652377.40591665
2,4, 1, 4, 0,11, 0.00,60.00,Wednesday
135,266550562.08486056
3420,266550562.0848605
3738,34899162.16140272
2,4, 1, 4, 0,12, 0.00,60.00,Wednesday
135,281292242.9374631
3420,281292242.937463
3738,23607985.38142342
2,4, 1, 4, 0,13, 0.00,60.00,Wednesday
135,285973572.2964015
3420,285973572.29640144
3738,31348798.230013758
2,4, 1, 4, 0,14, 0.00,60.00,Wednesday
135,292517489.6756735
3420,292517489.6756735
3738,26188383.070569854
2,4, 1, 4, 0,15, 0.00,60.00,Wednesday
135,278936139.3508474
3420,278936139.3508474
3738,20127398.59969132
2,4, 1, 4, 0,16, 0.00,60.00,Wednesday
135,276955145.5425564
3420,276955145.54255635
3738,15653031.314340789
2,4, 1, 4, 0,17, 0.00,60.00,Wednesday
135,295961521.3481208
3420,295961521.34812075
3738,25318407.256185487
2,4, 1, 4, 0,18, 0.00,60.00,Wednesday
135,249790251.11624223
3420,249790251.11624217
3738,14864476.667762557
2,4, 1, 4, 0,19, 0.00,60.00,Wednesday
135,132103039.86723197
3420,132103039.86723197
3738,28501881.551320106
2,4, 1, 4, 0,20, 0.00,60.00,Wednesday
135,113569604.38930234
3420,113569604.38930234
3738,41762766.323415086
2,4, 1, 4, 0,21, 0.00,60.00,Wednesday
135,102910895.06207252
3420,102910895.06207252
3738,55301881.79344201
2,4, 1, 4, 0,22, 0.00,60.00,Wednesday
135,98267997.61519502
3420,98267997.61519504
3738,67012577.12525496
2,4, 1, 4, 0,23, 0.00,60.00,Wednesday
135,77772390.65670998
3420,77772390.65670998
3738,6791184.0
2,4, 1, 4, 0,24, 0.00,60.00,Wednesday
135,72442274.24247962
3420,72442274.24247962
3738,6791184.0
2,5, 1, 5, 0, 1, 0.00,60.00,Thursday
135,57996196.7332391
3420,57996196.7332391
3738,6791184.0
2,5, 1, 5, 0, 2, 0.00,60.00,Thursday
135,57609860.1137362
3420,57609860.1137362
3738,6791184.0
2,5, 1, 5, 0, 3, 0.00,60.00,Thursday
135,57609860.1137362
3420,57609860.1137362
3738,6791184.0
2,5, 1, 5, 0, 4, 0.00,60.00,Thursday
135,57609860.1137362
3420,57609860.1137362
3738,6791184.0
2,5, 1, 5, 0, 5, 0.00,60.00,Thursday
135,57609860.1137362
3420,57609860.1137362
3738,6791184.0
2,5, 1, 5, 0, 6, 0.00,60.00,Thursday
135,57609860.1137362
3420,57609860.1137362
3738,6791184.0
2,5, 1, 5, 0, 7, 0.00,60.00,Thursday
135,97735623.67105103
3420,97735623.67105103
3738,6791184.0
2,5, 1, 5, 0, 8, 0.00,60.00,Thursday
135,173100768.07654965
3420,173100768.07654962
3738,110910429.20140871
2,5, 1, 5, 0, 9, 0.00,60.00,Thursday
135,311205020.1220606
3420,311205020.12206054
3738,58843916.725474425
2,5, 1, 5, 0,10, 0.00,60.00,Thursday
135,280658060.50632495
3420,280658060.50632495
3738,15412325.557579566
2,5, 1, 5, 0,11, 0.00,60.00,Thursday
135,279876095.09554434
3420,279876095.09554434
3738,11332836.2691178
2,5, 1, 5, 0,12, 0.00,60.00,Thursday
135,292294718.72825456
3420,292294718.72825456
3738,20890598.102329075
2,5, 1, 5, 0,13, 0.00,60.00,Thursday
135,295353791.6656956
3420,295353791.6656956
3738,31321004.3765677
2,5, 1, 5, 0,14, 0.00,60.00,Thursday
135,318626094.28015083
3420,318626094.28015083
3738,26189196.32819946
2,5, 1, 5, 0,15, 0.00,60.00,Thursday
135,310992380.14531803
3420,310992380.145318
3738,20204811.27475941
2,5, 1, 5, 0,16, 0.00,60.00,Thursday
135,313840471.08989
3420,313840471.08988994
3738,15641997.050069306
2,5, 1, 5, 0,17, 0.00,60.00,Thursday
135,315651890.94153696
3420,315651890.941537
3738,25321918.281090297
2,5, 1, 5, 0,18, 0.00,60.00,Thursday
135,245350129.87635216
3420,245350129.87635216
3738,11104746.850275641
2,5, 1, 5, 0,19, 0.00,60.00,Thursday
135,132562907.30267376
3420,132562907.30267377
3738,19287273.972011693
2,5, 1, 5, 0,20, 0.00,60.00,Thursday
135,113569604.38930234
3420,113569604.38930234
3738,41005226.30737797
2,5, 1, 5, 0,21, 0.00,60.00,Thursday
135,102910895.06207252
3420,102910895.06207252
3738,55509346.41385272
2,5, 1, 5, 0,22, 0.00,60.00,Thursday
135,98267997.61519502
3420,98267997.61519504
3738,71301834.73390386
2,5, 1, 5, 0,23, 0.00,60.00,Thursday
135,77772390.65670998
3420,77772390.65670998
3738,6791184.0
2,5, 1, 5, 0,24, 0.00,60.00,Thursday
135,72442274.24247962
3420,72442274.24247962
3738,6791184.0
2,6, 1, 6, 0, 1, 0.00,60.00,Friday
135,57996196.7332391
3420,57996196.7332391
3738,6791184.0
2,6, 1, 6, 0, 2, 0.00,60.00,Friday
135,57609860.1137362
3420,57609860.1137362
3738,6791184.0
2,6, 1, 6, 0, 3, 0.00,60.00,Friday
135,57609860.1137362
3420,57609860.1137362
3738,6791184.0
2,6, 1, 6, 0, 4, 0.00,60.00,Friday
135,57609860.1137362
3420,57609860.1137362
3738,6791184.0
2,6, 1, 6, 0, 5, 0.00,60.00,Friday
135,57609860.1137362
3420,57609860.1137362
3738,6791184.0
2,6, 1, 6, 0, 6, 0.00,60.00,Friday
135,57609860.1137362
3420,57609860.1137362
3738,6791184.0
2,6, 1, 6, 0, 7, 0.00,60.00,Friday
135,107750990.57010098
3420,107750990.57010098
3738,6791184.0
2,6, 1, 6, 0, 8, 0.00,60.00,Friday
135,197044065.72362465
3420,197044065.72362468
3738,155760397.05988166
2,6, 1, 6, 0, 9, 0.00,60.00,Friday
135,316137218.1378385
3420,316137218.13783854
3738,108737037.31922472
2,6, 1, 6, 0,10, 0.00,60.00,Friday
135,269271648.722671
3420,269271648.722671
3738,104302011.33274688
2,6, 1, 6, 0,11, 0.00,60.00,Friday
135,259224393.4562395
3420,259224393.45623952
3738,93934137.53250757
2,6, 1, 6, 0,12, 0.00,60.00,Friday
135,274721453.1559413
3420,274721453.1559413
3738,74039663.21898127
2,6, 1, 6, 0,13, 0.00,60.00,Friday
135,285249174.9879708
3420,285249174.9879708
3738,42065333.741028614
2,6, 1, 6, 0,14, 0.00,60.00,Friday
135,295320337.51441455
3420,295320337.5144145
3738,27422388.396247733
2,6, 1, 6, 0,15, 0.00,60.00,Friday
135,284600314.41680247
3420,284600314.41680247
3738,19045312.139543295
2,6, 1, 6, 0,16, 0.00,60.00,Friday
135,285794607.89475226
3420,285794607.8947522
3738,15648123.283097627
2,6, 1, 6, 0,17, 0.00,60.00,Friday
135,296586665.9209411
3420,296586665.92094105
3738,36601493.033632696
2,6, 1, 6, 0,18, 0.00,60.00,Friday
135,247677971.77251437
3420,247677971.77251437
3738,83332047.5896924
2,6, 1, 6, 0,19, 0.00,60.00,Friday
135,132099852.15044864
3420,132099852.15044862
3738,131170332.11731936
2,6, 1, 6, 0,20, 0.00,60.00,Friday
135,116634843.59142576
3420,116634843.59142575
3738,133838737.22287759
2,6, 1, 6, 0,21, 0.00,60.00,Friday
135,109713986.42290154
3420,109713986.42290154
3738,152046678.45261434
2,6, 1, 6, 0,22, 0.00,60.00,Friday
135,107564103.54057798
3420,107564103.54057798
3738,151041647.15674272
2,6, 1, 6, 0,23, 0.00,60.00,Friday
135,77772390.65670998
3420,77772390.65670998
3738,6791184.0
2,6, 1, 6, 0,24, 0.00,60.00,Friday
135,72442274.24247962
3420,72442274.24247962
3738,6791184.0
2,7, 1, 7, 0, 1, 0.00,60.00,Saturday
135,46745513.81922844
3420,46745513.81922843
3738,6791184.0
2,7, 1, 7, 0, 2, 0.00,60.00,Saturday
135,46359235.70955593
3420,46359235.709555924
3738,6791184.0
2,7, 1, 7, 0, 3, 0.00,60.00,Saturday
135,46359235.70955593
3420,46359235.709555924
3738,6791184.0
2,7, 1, 7, 0, 4, 0.00,60.00,Saturday
135,46359235.70955593
3420,46359235.709555924
3738,6791184.0
2,7, 1, 7, 0, 5, 0.00,60.00,Saturday
135,46359235.70955593
3420,46359235.709555924
3738,6791184.0
2,7, 1, 7, 0, 6, 0.00,60.00,Saturday
135,46359235.70955593
3420,46359235.709555924
3738,6791184.0
2,7, 1, 7, 0, 7, 0.00,60.00,Saturday
135,132113312.09709707
3420,132113312.09709707
3738,6791184.0
2,7, 1, 7, 0, 8, 0.00,60.00,Saturday
135,170137399.85198972
3420,170137399.85198975
3738,194996293.10479224
2,7, 1, 7, 0, 9, 0.00,60.00,Saturday
135,149732537.22477245
3420,149732537.22477248
3738,182576711.26392338
2,7, 1, 7, 0,10, 0.00,60.00,Saturday
135,146503059.87582952
3420,146503059.8758295
3738,173190995.81056565
2,7, 1, 7, 0,11, 0.00,60.00,Saturday
135,134791686.3773467
3420,134791686.3773467
3738,145434473.51815128
2,7, 1, 7, 0,12, 0.00,60.00,Saturday
135,139352523.2845013
3420,139352523.2845013
3738,115045356.67822833
2,7, 1, 7, 0,13, 0.00,60.00,Saturday
135,98934027.74256453
3420,98934027.74256453
3738,95155004.49036378
2,7, 1, 7, 0,14, 0.00,60.00,Saturday
135,88792723.90410358
3420,88792723.90410358
3738,94543089.4835286
2,7, 1, 7, 0,15, 0.00,60.00,Saturday
135,82833254.3096404
3420,82833254.3096404
3738,89857217.84591612
2,7, 1, 7, 0,16, 0.00,60.00,Saturday
135,81368997.78440145
3420,81368997.78440148
3738,99224917.84292099
2,7, 1, 7, 0,17, 0.00,60.00,Saturday
135,88832642.07514173
3420,88832642.07514174
3738,108423132.64784887
2,7, 1, 7, 0,18, 0.00,60.00,Saturday
135,83077160.33306564
3420,83077160.33306564
3738,122179035.74806167
2,7, 1, 7, 0,19, 0.00,60.00,Saturday
135,66276703.53612528
3420,66276703.53612528
3738,6791184.0
2,7, 1, 7, 0,20, 0.00,60.00,Saturday
135,49290893.81922844
3420,49290893.81922844
3738,6791184.0
2,7, 1, 7, 0,21, 0.00,60.00,Saturday
135,48904615.70955593
3420,48904615.70955593
3738,6791184.0
2,7, 1, 7, 0,22, 0.00,60.00,Saturday
135,48904615.70955593
3420,48904615.70955593
3738,6791184.0
2,7, 1, 7, 0,23, 0.00,60.00,Saturday
135,48904615.70955593
3420,48904615.70955593
3738,6791184.0
2,7, 1, 7, 0,24, 0.00,60.00,Saturday
135,48904615.70955593
3420,48904615.70955593
3738,6791184.0
2,8, 1, 8, 0, 1, 0.00,60.00,Sunday
135,46359235.70955593
3420,46359235.709555924
3738,6791184.0
2,8, 1, 8, 0, 2, 0.00,60.00,Sunday
135,46359235.70955593
3420,46359235.709555924
3738,6791184.0
2,8, 1, 8, 0, 3, 0.00,60.00,Sunday
135,46359235.70955593
3420,46359235.709555924
3738,6791184.0
2,8, 1, 8, 0, 4, 0.00,60.00,Sunday
135,46359235.70955593
3420,46359235.709555924
3738,6791184.0
2,8, 1, 8, 0, 5, 0.00,60.00,Sunday
135,46359235.70955593
3420,46359235.709555924
3738,6791184.0
2,8, 1, 8, 0, 6, 0.00,60.00,Sunday
135,46359235.70955593
3420,46359235.709555924
3738,6791184.0
2,8, 1, 8, 0, 7, 0.00,60.00,Sunday
135,66032185.73006148
3420,66032185.73006148
3738,6791184.0
2,8, 1, 8, 0, 8, 0.00,60.00,Sunday
135,53323844.00465802
3420,53323844.00465801
3738,6791184.0
2,8, 1, 8, 0, 9, 0.00,60.00,Sunday
135,46344277.411104605
3420,46344277.411104605
3738,6791184.0
2,8, 1, 8, 0,10, 0.00,60.00,Sunday
135,46288812.51597283
3420,46288812.51597283
3738,6791184.0
2,8, 1, 8, 0,11, 0.00,60.00,Sunday
135,46288812.51597283
3420,46288812.51597283
3738,6791184.0
2,8, 1, 8, 0,12, 0.00,60.00,Sunday
135,47717307.27798309
3420,47717307.277983084
3738,6791184.0
2,8, 1, 8, 0,13, 0.00,60.00,Sunday
135,48700153.34493348
3420,48700153.34493348
3738,6791184.0
2,8, 1, 8, 0,14, 0.00,60.00,Sunday
135,54031471.576072395
3420,54031471.576072395
3738,6791184.0
2,8, 1, 8, 0,15, 0.00,60.00,Sunday
135,53262909.28943419
3420,53262909.289434195
3738,6791184.0
2,8, 1, 8, 0,16, 0.00,60.00,Sunday
135,49948144.257258
3420,49948144.257258
3738,6791184.0
2,8, 1, 8, 0,17, 0.00,60.00,Sunday
135,46532216.27552035
3420,46532216.27552035
3738,6791184.0
2,8, 1, 8, 0,18, 0.00,60.00,Sunday
135,66276671.30593526
3420,66276671.30593526
3738,6791184.0
2,8, 1, 8, 0,19, 0.00,60.00,Sunday
135,57105773.81922845
3420,57105773.81922844
3738,6791184.0
2,8, 1, 8, 0,20, 0.00,60.00,Sunday
135,48904615.70955593
3420,48904615.70955593
3738,6791184.0
2,8, 1, 8, 0,21, 0.00,60.00,Sunday
135,48904615.70955593
3420,48904615.70955593
3738,6791184.0
2,8, 1, 8, 0,22, 0.00,60.00,Sunday
135,48904615.70955593
3420,48904615.70955593
3738,6791184.0
2,8, 1, 8, 0,23, 0.00,60.00,Sunday
135,48904615.70955593
3420,48904615.70955593
3738,6791184.0
2,8, 1, 8, 0,24, 0.00,60.00,Sunday
135,48904615.70955593
3420,48904615.70955593
3738,6791184.0
2,9, 1, 9, 0, 1, 0.00,60.00,Monday
135,57609860.1137362
3420,57609860.1137362
3738,6791184.0
2,9, 1, 9, 0, 2, 0.00,60.00,Monday
135,57609860.1137362
3420,57609860.1137362
3738,6791184.0
2,9, 1, 9, 0, 3, 0.00,60.00,Monday
135,57609860.1137362
3420,57609860.1137362
3738,6791184.0
2,9, 1, 9, 0, 4, 0.00,60.00,Monday
135,57609860.1137362
3420,57609860.1137362
3738,6791184.0
2,9, 1, 9, 0, 5, 0.00,60.00,Monday
135,57609860.1137362
3420,57609860.1137362
3738,6791184.0
2,9, 1, 9, 0, 6, 0.00,60.00,Monday
135,78653996.39043766
3420,78653996.39043766
3738,6791184.0
2,9, 1, 9, 0, 7, 0.00,60.00,Monday
135,184696188.74384674
3420,184696188.74384674
3738,6791184.0
2,9, 1, 9, 0, 8, 0.00,60.00,Monday
135,266622985.3619274
3420,266622985.3619274
3738,185201016.6461977
2,9, 1, 9, 0, 9, 0.00,60.00,Monday
135,331853848.79518086
3420,331853848.7951808
3738,131122066.96167707
2,9, 1, 9, 0,10, 0.00,60.00,Monday
135,280158015.2108903
3420,280158015.21089023
3738,108759612.94490974
2,9, 1, 9, 0,11, 0.00,60.00,Monday
135,264789793.70610487
3420,264789793.70610482
3738,70379931.37568599
2,9, 1, 9, 0,12, 0.00,60.00,Monday
135,275561148.4311331
3420,275561148.4311331
3738,45581337.62188457
2,9, 1, 9, 0,13, 0.00,60.00,Monday
135,279746473.53687775
3420,279746473.53687775
3738,33844773.797317125
2,9, 1, 9, 0,14, 0.00,60.00,Monday
135,292998517.7349514
3420,292998517.7349514
3738,26220232.47017252
2,9, 1, 9, 0,15, 0.00,60.00,Monday
135,284355936.7863035
3420,284355936.78630346
3738,20131651.753185835
2,9, 1, 9, 0,16, 0.00,60.00,Monday
135,290242633.9835541
3420,290242633.9835541
3738,15657456.455520893
2,9, 1, 9, 0,17, 0.00,60.00,Monday
135,303240047.8792994
3420,303240047.87929934
3738,25336575.687597904
2,9, 1, 9, 0,18, 0.00,60.00,Monday
135,241767216.2165915
3420,241767216.2165915
3738,31027454.73520463
2,9, 1, 9, 0,19, 0.00,60.00,Monday
135,134713557.3956341
3420,134713557.3956341
3738,65736737.4683533
2,9, 1, 9, 0,20, 0.00,60.00,Monday
135,121421629.3756677
3420,121421629.37566772
3738,74025563.58006865
2,9, 1, 9, 0,21, 0.00,60.00,Monday
135,114436524.33849263
3420,114436524.33849265
3738,61981579.13975856
2,9, 1, 9, 0,22, 0.00,60.00,Monday
135,113066941.49868053
3420,113066941.49868055
3738,65115688.68923028
2,9, 1, 9, 0,23, 0.00,60.00,Monday
135,77772390.65670998
3420,77772390.65670998
3738,6791184.0
2,9, 1, 9, 0,24, 0.00,60.00,Monday
135,72442274.24247962
3420,72442274.24247962
3738,6791184.0
2,10, 1,10, 0, 1, 0.00,60.00,Tuesday
135,57996196.7332391
3420,57996196.7332391
3738,6791184.0
2,10, 1,10, 0, 2, 0.00,60.00,Tuesday
135,57609860.1137362
3420,57609860.1137362
3738,6791184.0
2,10, 1,10, 0, 3, 0.00,60.00,Tuesday
135,57609860.1137362
3420,57609860.1137362
3738,6791184.0
2,10, 1,10, 0, 4, 0.00,60.00,Tuesday
135,57609860.1137362
3420,57609860.1137362
3738,6791184.0
2,10, 1,10, 0, 5, 0.00,60.00,Tuesday
135,57609860.1137362
3420,57609860.1137362
3738,6791184.0
2,10, 1,10, 0, 6, 0.00,60.00,Tuesday
135,57609860.1137362
3420,57609860.1137362
3738,6791184.0
2,10, 1,10, 0, 7, 0.00,60.00,Tuesday
135,134117520.1805234
3420,134117520.18052341
3738,6791184.0
2,10, 1,10, 0, 8, 0.00,60.00,Tuesday
135,226118120.67005453
3420,226118120.67005453
3738,155559744.18454495
2,10, 1,10, 0, 9, 0.00,60.00,Tuesday
135,312445284.2951221
3420,312445284.2951221
3738,101370702.10454641
2,10, 1,10, 0,10, 0.00,60.00,Tuesday
135,268145865.70532206
3420,268145865.70532206
3738,80431625.21790054
2,10, 1,10, 0,11, 0.00,60.00,Tuesday
135,258492996.25948524
3420,258492996.25948524
3738,67192652.08423653
2,10, 1,10, 0,12, 0.00,60.00,Tuesday
135,267990267.04801074
3420,267990267.04801074
3738,77279197.5942178
2,10, 1,10, 0,13, 0.00,60.00,Tuesday
135,288926843.3702333
3420,288926843.37023324
3738,56960898.48621941
2,10, 1,10, 0,14, 0.00,60.00,Tuesday
135,283371257.99104995
3420,283371257.99104995
3738,37989165.91208047
2,10, 1,10, 0,15, 0.00,60.00,Tuesday
135,273989737.96296555
3420,273989737.9629655
3738,15684716.66671225
2,10, 1,10, 0,16, 0.00,60.00,Tuesday
135,276085502.1094459
3420,276085502.1094459
3738,18528635.070106585
2,10, 1,10, 0,17, 0.00,60.00,Tuesday
135,288563978.4309508
3420,288563978.43095076
3738,22344720.69391238
2,10, 1,10, 0,18, 0.00,60.00,Tuesday
135,248489233.87752822
3420,248489233.87752822
3738,35586565.68896407
2,10, 1,10, 0,19, 0.00,60.00,Tuesday
135,131945789.29864608
3420,131945789.29864608
3738,74982533.92791337
2,10, 1,10, 0,20, 0.00,60.00,Tuesday
135,117099269.47510198
3420,117099269.47510198
3738,78166468.37226258
2,10, 1,10, 0,21, 0.00,60.00,Tuesday
135,108819427.09293027
3420,108819427.09293029
3738,87334468.06863137
2,10, 1,10, 0,22, 0.00,60.00,Tuesday
135,108600193.42766282
3420,108600193.42766282
3738,101838468.53291519
2,10, 1,10, 0,23, 0.00,60.00,Tuesday
135,77772390.65670998
3420,77772390.65670998
3738,6791184.0
2,10, 1,10, 0,24, 0.00,60.00,Tuesday
135,72442274.24247962
3420,72442274.24247962
3738,6791184.0
2,11, 1,11, 0, 1, 0.00,60.00,Wednesday
135,57996196.7332391
3420,57996196.7332391
3738,6791184.0
2,11, 1,11, 0, 2, 0.00,60.00,Wednesday
135,57609860.1137362
3420,57609860.1137362
3738,6791184.0
2,11, 1,11, 0, 3, 0.00,60.00,Wednesday
135,57609860.1137362
3420,57609860.1137362
3738,6791184.0
2,11, 1,11, 0, 4, 0.00,60.00,Wednesday
135,57609860.1137362
3420,57609860.1137362
3738,6791184.0
2,11, 1,11, 0, 5, 0.00,60.00,Wednesday
135,57609860.1137362
3420,57609860.1137362
3738,6791184.0
2,11, 1,11, 0, 6, 0.00,60.00,Wednesday
135,57609860.1137362
3420,57609860.1137362
3738,6791184.0
2,11, 1,11, 0, 7, 0.00,60.00,Wednesday
135,112931093.24502257
3420,112931093.2450226
3738,6791184.0
2,11, 1,11, 0, 8, 0.00,60.00,Wednesday
135,198624190.67508313
3420,198624190.6750831
3738,87508727.08163749
2,11, 1,11, 0, 9, 0.00,60.00,Wednesday
135,304762202.2455104
3420,304762202.2455104
3738,59727942.506130695
2,11, 1,11, 0,10, 0.00,60.00,Wednesday
135,266681220.322588
3420,266681220.32258797
3738,47872301.15083407
2,11, 1,11, 0,11, 0.00,60.00,Wednesday
135,259987195.53255984
3420,259987195.53255978
3738,20750935.63648336
2,11, 1,11, 0,12, 0.00,60.00,Wednesday
135,268577466.76439893
3420,268577466.76439893
3738,27291605.46596816
2,11, 1,11, 0,13, 0.00,60.00,Wednesday
135,273956812.97003996
3420,273956812.9700399
3738,42577468.49643111
2,11, 1,11, 0,14, 0.00,60.00,Wednesday
135,272791085.45953804
3420,272791085.45953804
3738,30702568.821362756
2,11, 1,11, 0,15, 0.00,60.00,Wednesday
135,258928305.39398974
3420,258928305.39398968
3738,23246504.285936646
2,11, 1,11, 0,16, 0.00,60.00,Wednesday
135,259269413.55745968
3420,259269413.55745968
3738,27738059.73797803
2,11, 1,11, 0,17, 0.00,60.00,Wednesday
135,276425675.8201592
3420,276425675.8201592
3738,54744073.522068866
2,11, 1,11, 0,18, 0.00,60.00,Wednesday
135,241608276.3960728
3420,241608276.3960728
3738,57374793.207901105
2,11, 1,11, 0,19, 0.00,60.00,Wednesday
135,131803275.82920529
3420,131803275.82920529
3738,84474178.95364599
2,11, 1,11, 0,20, 0.00,60.00,Wednesday
135,114875775.23031777
3420,114875775.23031777
3738,93114799.54934794
2,11, 1,11, 0,21, 0.00,60.00,Wednesday
135,107071818.57741508
3420,107071818.5774151
3738,92493967.16064179
2,11, 1,11, 0,22, 0.00,60.00,Wednesday
135,105639593.47150075
3420,105639593.47150075
3738,104934647.14648743
2,11, 1,11, 0,23, 0.00,60.00,Wednesday
135,77772390.65670998
3420,77772390.65670998
3738,6791184.0
2,11, 1,11, 0,24, 0.00,60.00,Wednesday
135,72442274.24247962
3420,72442274.24247962
3738,6791184.0
2,12, 1,12, 0, 1, 0.00,60.00,Thursday
135,57996196.7332391
3420,57996196.7332391
3738,6791184.0
2,12, 1,12, 0, 2, 0.00,60.00,Thursday
135,57609860.1137362
3420,57609860.1137362
3738,6791184.0
2,12, 1,12, 0, 3, 0.00,60.00,Thursday
135,57609860.1137362
3420,57609860.1137362
3738,6791184.0
2,12, 1,12, 0, 4, 0.00,60.00,Thursday
135,57609860.1137362
3420,57609860.1137362
3738,6791184.0
2,12, 1,12, 0, 5, 0.00,60.00,Thursday
135,57609860.1137362
3420,57609860.1137362
3738,6791184.0
2,12, 1,12, 0, 6, 0.00,60.00,Thursday
135,57609860.1137362
3420,57609860.1137362
3738,6791184.0
2,12, 1,12, 0, 7, 0.00,60.00,Thursday
135,113441566.77312315
3420,113441566.77312315
3738,6791184.0
2,12, 1,12, 0, 8, 0.00,60.00,Thursday
135,197234883.2738287
3420,197234883.27382866
3738,133199011.41968139
2,12, 1,12, 0, 9, 0.00,60.00,Thursday
135,310671974.5911162
3420,310671974.5911162
3738,86917304.6756109
2,12, 1,12, 0,10, 0.00,60.00,Thursday
135,268309138.1185834
3420,268309138.1185834
3738,74246328.2713586
2,12, 1,12, 0,11, 0.00,60.00,Thursday
135,261640533.07568935
3420,261640533.07568932
3738,57904697.961547956
2,12, 1,12, 0,12, 0.00,60.00,Thursday
135,273620696.062743
3420,273620696.062743
3738,52452005.17989972
2,12, 1,12, 0,13, 0.00,60.00,Thursday
135,291815714.0709073
3420,291815714.07090724
3738,46273716.5051679
2,12, 1,12, 0,14, 0.00,60.00,Thursday
135,284384268.0109369
3420,284384268.010937
3738,40816113.03300291
2,12, 1,12, 0,15, 0.00,60.00,Thursday
135,269089054.11896616
3420,269089054.1189661
3738,22306665.32503714
2,12, 1,12, 0,16, 0.00,60.00,Thursday
135,268960800.5870742
3420,268960800.5870742
3738,29605557.655023392
2,12, 1,12, 0,17, 0.00,60.00,Thursday
135,287565881.43895507
3420,287565881.438955
3738,36500469.89606759
2,12, 1,12, 0,18, 0.00,60.00,Thursday
135,249720722.45252877
3420,249720722.4525288
3738,50239047.38810548
2,12, 1,12, 0,19, 0.00,60.00,Thursday
135,133422793.14913589
3420,133422793.14913589
3738,75090111.68478969
2,12, 1,12, 0,20, 0.00,60.00,Thursday
135,113861832.90936662
3420,113861832.90936662
3738,72424999.50330727
2,12, 1,12, 0,21, 0.00,60.00,Thursday
135,105165450.76326561
3420,105165450.76326561
3738,76083940.21197824
2,12, 1,12, 0,22, 0.00,60.00,Thursday
135,102424149.804815
3420,102424149.804815
3738,79830874.20467015
2,12, 1,12, 0,23, 0.00,60.00,Thursday
135,77772390.65670998
3420,77772390.65670998
3738,6791184.0
2,12, 1,12, 0,24, 0.00,60.00,Thursday
135,72442274.24247962
3420,72442274.24247962
3738,6791184.0
2,13, 1,13, 0, 1, 0.00,60.00,Friday
135,57996196.7332391
3420,57996196.7332391
3738,6791184.0