Program Version,EnergyPlus, Version 9.6.0-f420c06a69, YMD=2022.07.16 14:35
1,5,Environment Title[],Latitude[deg],Longitude[deg],Time Zone[],Elevation[m]
2,8,Day of Simulation[],Month[],Day of Month[],DST Indicator[1=yes 0=no],Hour[],StartMinute[],EndMinute[],DayType
3,5,Cumulative Day of Simulation[],Month[],Day of Month[],DST Indicator[1=yes 0=no],DayType  ! When Daily Meters Requested
4,2,Cumulative Days of Simulation[],Month[]  ! When Monthly Meters Requested
5,1,Cumulative Days of Simulation[] ! When Run Period Meters Requested
6,1,Calendar Year of Simulation[] ! When Annual Meters Requested
135,1,Electricity:Facility [J] !Hourly
3420,1,ElectricityNet:Facility [J] !Hourly
3738,1,NaturalGas:Facility [J] !Hourly
End of Data Dictionary
1,RUNPERIOD 1,  35.04,-106.62,  -7.00,1619.00
2,1, 1, 1, 0, 1, 0.00,60.00,Holiday
135,46359074.93593144
3420,46359074.93593143
3738,6791184.0
2,1, 1, 1, 0, 2, 0.00,60.00,Holiday
135,46359235.70955593
3420,46359235.709555924
3738,6791184.0
2,1, 1, 1, 0, 3, 0.00,60.00,Holiday
135,46359235.70955593
3420,46359235.709555924
3738,6791184.0
2,1, 1, 1, 0, 4, 0.00,60.00,Holiday
135,46359235.70955593
3420,46359235.709555924
3738,6791184.0
2,1, 1, 1, 0, 5, 0.00,60.00,Holiday
135,46359235.70955593
3420,46359235.709555924
3738,6791184.0
2,1, 1, 1, 0, 6, 0.00,60.00,Holiday
135,46359235.70955593
3420,46359235.709555924
3738,6791184.0
2,1, 1, 1, 0, 7, 0.00,60.00,Holiday
135,66032185.73006148
3420,66032185.73006148
3738,6791184.0
2,1, 1, 1, 0, 8, 0.00,60.00,Holiday
135,50074623.774579875
3420,50074623.774579875
3738,6791184.0
2,1, 1, 1, 0, 9, 0.00,60.00,Holiday
135,46351708.9331394
3420,46351708.9331394
3738,6791184.0
2,1, 1, 1, 0,10, 0.00,60.00,Holiday
135,46288813.17904917
3420,46288813.179049164
3738,6791184.0
2,1, 1, 1, 0,11, 0.00,60.00,Holiday
135,50556028.58634514
3420,50556028.58634514
3738,6791184.0
2,1, 1, 1, 0,12, 0.00,60.00,Holiday
135,53620061.07971074
3420,53620061.07971075
3738,6791184.0
2,1, 1, 1, 0,13, 0.00,60.00,Holiday
135,54251377.4482968
3420,54251377.44829681
3738,6791184.0
2,1, 1, 1, 0,14, 0.00,60.00,Holiday
135,58744815.664830714
3420,58744815.66483073
3738,6791184.0
2,1, 1, 1, 0,15, 0.00,60.00,Holiday
135,64652365.25448359
3420,64652365.25448359
3738,6791184.0
2,1, 1, 1, 0,16, 0.00,60.00,Holiday
135,62671968.53224909
3420,62671968.53224909
3738,6791184.0
2,1, 1, 1, 0,17, 0.00,60.00,Holiday
135,54610940.42094375
3420,54610940.42094375
3738,6791184.0
2,1, 1, 1, 0,18, 0.00,60.00,Holiday
135,66905826.86107348
3420,66905826.86107348
3738,6791184.0
2,1, 1, 1, 0,19, 0.00,60.00,Holiday
135,57105773.81922845
3420,57105773.81922844
3738,6791184.0
2,1, 1, 1, 0,20, 0.00,60.00,Holiday
135,48904615.70955593
3420,48904615.70955593
3738,6791184.0
2,1, 1, 1, 0,21, 0.00,60.00,Holiday
135,48904615.70955593
3420,48904615.70955593
3738,6791184.0
2,1, 1, 1, 0,22, 0.00,60.00,Holiday
135,48904615.70955593
3420,48904615.70955593
3738,6791184.0
2,1, 1, 1, 0,23, 0.00,60.00,Holiday
135,48904615.70955593
3420,48904615.70955593
3738,6791184.0
2,1, 1, 1, 0,24, 0.00,60.00,Holiday
135,48904615.70955593
3420,48904615.70955593
3738,6791184.0
2,2, 1, 2, 0, 1, 0.00,60.00,Monday
135,57609860.1137362
3420,57609860.1137362
3738,6791184.0
2,2, 1, 2, 0, 2, 0.00,60.00,Monday
135,57609860.1137362
3420,57609860.1137362
3738,6791184.0
2,2, 1, 2, 0, 3, 0.00,60.00,Monday
135,57609860.1137362
3420,57609860.1137362
3738,6791184.0
2,2, 1, 2, 0, 4, 0.00,60.00,Monday
135,57609860.1137362
3420,57609860.1137362
3738,6791184.0
2,2, 1, 2, 0, 5, 0.00,60.00,Monday
135,57609860.1137362
3420,57609860.1137362
3738,6791184.0
2,2, 1, 2, 0, 6, 0.00,60.00,Monday
135,57609860.1137362
3420,57609860.1137362
3738,6791184.0
2,2, 1, 2, 0, 7, 0.00,60.00,Monday
135,134878218.9732619
3420,134878218.97326186
3738,6791184.0
2,2, 1, 2, 0, 8, 0.00,60.00,Monday
135,224447349.34681612
3420,224447349.34681612
3738,144051788.3317502
2,2, 1, 2, 0, 9, 0.00,60.00,Monday
135,310113173.5226268
3420,310113173.52262676
3738,88876839.65152809
2,2, 1, 2, 0,10, 0.00,60.00,Monday
135,271365063.6523837
3420,271365063.6523836
3738,60265923.85270449
2,2, 1, 2, 0,11, 0.00,60.00,Monday
135,268042805.41555253
3420,268042805.41555253
3738,22324186.92765486
2,2, 1, 2, 0,12, 0.00,60.00,Monday
135,288256589.4717232
3420,288256589.4717232
3738,20876794.54329522
2,2, 1, 2, 0,13, 0.00,60.00,Monday
135,289626908.83261126
3420,289626908.83261126
3738,31334423.78333511
2,2, 1, 2, 0,14, 0.00,60.00,Monday
135,304560312.7598077
3420,304560312.75980777
3738,26165958.14784857
2,2, 1, 2, 0,15, 0.00,60.00,Monday
135,297207055.59561163
3420,297207055.5956117
3738,16649506.089210246
2,2, 1, 2, 0,16, 0.00,60.00,Monday
135,301765850.1485542
3420,301765850.1485542
3738,19089949.697671723
2,2, 1, 2, 0,17, 0.00,60.00,Monday
135,300883689.7626623
3420,300883689.7626623
3738,20696611.81849547
2,2, 1, 2, 0,18, 0.00,60.00,Monday
135,237763786.45298475
3420,237763786.45298478
3738,22828722.127478585
2,2, 1, 2, 0,19, 0.00,60.00,Monday
135,131185250.1779861
3420,131185250.1779861
3738,54000351.72755138
2,2, 1, 2, 0,20, 0.00,60.00,Monday
135,115788227.31176195
3420,115788227.31176195
3738,68630236.21559957
2,2, 1, 2, 0,21, 0.00,60.00,Monday
135,107180701.07736793
3420,107180701.07736793
3738,80740475.22169581
2,2, 1, 2, 0,22, 0.00,60.00,Monday
135,104935694.04120313
3420,104935694.04120316
3738,82360406.46165311
2,2, 1, 2, 0,23, 0.00,60.00,Monday
135,77772390.65670998
3420,77772390.65670998
3738,6791184.0
2,2, 1, 2, 0,24, 0.00,60.00,Monday
135,72442274.24247962
3420,72442274.24247962
3738,6791184.0
2,3, 1, 3, 0, 1, 0.00,60.00,Tuesday
135,57996196.7332391
3420,57996196.7332391
3738,6791184.0
2,3, 1, 3, 0, 2, 0.00,60.00,Tuesday
135,57609860.1137362
3420,57609860.1137362
3738,6791184.0
2,3, 1, 3, 0, 3, 0.00,60.00,Tuesday
135,57609860.1137362
3420,57609860.1137362
3738,6791184.0
2,3, 1, 3, 0, 4, 0.00,60.00,Tuesday
135,57609860.1137362
3420,57609860.1137362
3738,6791184.0
2,3, 1, 3, 0, 5, 0.00,60.00,Tuesday
135,57609860.1137362
3420,57609860.1137362
3738,6791184.0
2,3, 1, 3, 0, 6, 0.00,60.00,Tuesday
135,57609860.1137362
3420,57609860.1137362
3738,6791184.0
2,3, 1, 3, 0, 7, 0.00,60.00,Tuesday
135,110246891.9321736
3420,110246891.9321736
3738,6791184.0
2,3, 1, 3, 0, 8, 0.00,60.00,Tuesday
135,189787777.19002396
3420,189787777.19002393
3738,127893569.43827754
2,3, 1, 3, 0, 9, 0.00,60.00,Tuesday
135,311735474.6462774
3420,311735474.64627737
3738,74048611.90492582
2,3, 1, 3, 0,10, 0.00,60.00,Tuesday
135,277285498.1859546
3420,277285498.1859546
3738,33473696.454957783
2,3, 1, 3, 0,11, 0.00,60.00,Tuesday
135,276669119.4453627
3420,276669119.44536257
3738,11005409.7709702
2,3, 1, 3, 0,12, 0.00,60.00,Tuesday
135,294510040.65947235
3420,294510040.65947235
3738,23274910.85150368
2,3, 1, 3, 0,13, 0.00,60.00,Tuesday
135,296008760.87337774
3420,296008760.87337774
3738,31313196.53816751
2,3, 1, 3, 0,14, 0.00,60.00,Tuesday
135,312459596.2197046
3420,312459596.2197046
3738,26179341.570204668
2,3, 1, 3, 0,15, 0.00,60.00,Tuesday
135,300132587.72396576
3420,300132587.72396576
3738,20134709.813017763
2,3, 1, 3, 0,16, 0.00,60.00,Tuesday
135,303905456.6083193
3420,303905456.6083192
3738,15642458.513267582
2,3, 1, 3, 0,17, 0.00,60.00,Tuesday
135,306143708.642809
3420,306143708.6428089
3738,20958292.106283188
2,3, 1, 3, 0,18, 0.00,60.00,Tuesday
135,241887659.15678734
3420,241887659.15678728
3738,17408500.555825397
2,3, 1, 3, 0,19, 0.00,60.00,Tuesday
135,131936317.85543132
3420,131936317.85543132
3738,31714708.765812345
2,3, 1, 3, 0,20, 0.00,60.00,Tuesday
135,113569604.38930234
3420,113569604.38930234
3738,51650092.05562477
2,3, 1, 3, 0,21, 0.00,60.00,Tuesday
135,102910895.06207252
3420,102910895.06207252
3738,60710470.68437332
2,3, 1, 3, 0,22, 0.00,60.00,Tuesday
135,99700727.8095243
3420,99700727.80952433
3738,89792459.07201333
2,3, 1, 3, 0,23, 0.00,60.00,Tuesday
135,77772390.65670998
3420,77772390.65670998
3738,6791184.0
2,3, 1, 3, 0,24, 0.00,60.00,Tuesday
135,72442274.24247962
3420,72442274.24247962
3738,6791184.0
2,4, 1, 4, 0, 1, 0.00,60.00,Wednesday
135,57996196.7332391
3420,57996196.7332391
3738,6791184.0
2,4, 1, 4, 0, 2, 0.00,60.00,Wednesday
135,57609860.1137362
3420,57609860.1137362
3738,6791184.0
2,4, 1, 4, 0, 3, 0.00,60.00,Wednesday
135,57609860.1137362
3420,57609860.1137362
3738,6791184.0
2,4, 1, 4, 0, 4, 0.00,60.00,Wednesday
135,57609860.1137362
3420,57609860.1137362
3738,6791184.0
2,4, 1, 4, 0, 5, 0.00,60.00,Wednesday
135,57609860.1137362
3420,57609860.1137362
3738,6791184.0
2,4, 1, 4, 0, 6, 0.00,60.00,Wednesday
135,57609860.1137362
3420,57609860.1137362
3738,6791184.0
2,4, 1, 4, 0, 7, 0.00,60.00,Wednesday
135,99530006.23726471
3420,99530006.23726472
3738,6791184.0
2,4, 1, 4, 0, 8, 0.00,60.00,Wednesday
135,179482838.82867184
3420,179482838.82867184
3738,93545861.62063792
2,4, 1, 4, 0, 9, 0.00,60.00,Wednesday
135,300858662.40598273
3420,300858662.4059828
3738,50072613.12142782
2,4, 1, 4, 0,10, 0.00,60.00,Wednesday
135,265734032.5075139
3420,265734032.5075139
3738,18615647.73312727
2,4, 1, 4, 0,11, 0.00,60.00,Wednesday
135,258066263.88553277
3420,258066263.88553277
3738,11419432.268493444
2,4, 1, 4, 0,12, 0.00,60.00,Wednesday
135,279993137.3837151
3420,279993137.3837151
3738,20883187.847312734
2,4, 1, 4, 0,13, 0.00,60.00,Wednesday
135,299514640.6475456
3420,299514640.6475455
3738,31318113.235406373
2,4, 1, 4, 0,14, 0.00,60.00,Wednesday
135,314042493.52941465
3420,314042493.52941465
3738,26183675.16060802
2,4, 1, 4, 0,15, 0.00,60.00,Wednesday
135,300105794.5640756
3420,300105794.5640756
3738,20138453.154238835
2,4, 1, 4, 0,16, 0.00,60.00,Wednesday
135,295037550.45140535
3420,295037550.4514053
3738,15652211.017165814
2,4, 1, 4, 0,17, 0.00,60.00,Wednesday
135,302139261.7135849
3420,302139261.7135849
3738,25317530.169501185
2,4, 1, 4, 0,18, 0.00,60.00,Wednesday
135,232725224.0217821
3420,232725224.02178207
3738,11107027.731291808
2,4, 1, 4, 0,19, 0.00,60.00,Wednesday
135,130679639.23603314
3420,130679639.23603314
3738,11019613.876085497
2,4, 1, 4, 0,20, 0.00,60.00,Wednesday
135,113569604.38930234
3420,113569604.38930234
3738,11943310.677094106
2,4, 1, 4, 0,21, 0.00,60.00,Wednesday
135,102910895.06207252
3420,102910895.06207252
3738,24752975.925007246
2,4, 1, 4, 0,22, 0.00,60.00,Wednesday
135,98267997.61519502
3420,98267997.61519504
3738,43661531.6581963
2,4, 1, 4, 0,23, 0.00,60.00,Wednesday
135,77772390.65670998
3420,77772390.65670998
3738,6791184.0
2,4, 1, 4, 0,24, 0.00,60.00,Wednesday
135,72442274.24247962
3420,72442274.24247962
3738,6791184.0
2,5, 1, 5, 0, 1, 0.00,60.00,Thursday
135,57996196.7332391
3420,57996196.7332391
3738,6791184.0
2,5, 1, 5, 0, 2, 0.00,60.00,Thursday
135,57609860.1137362
3420,57609860.1137362
3738,6791184.0
2,5, 1, 5, 0, 3, 0.00,60.00,Thursday
135,57609860.1137362
3420,57609860.1137362
3738,6791184.0
2,5, 1, 5, 0, 4, 0.00,60.00,Thursday
135,57609860.1137362
3420,57609860.1137362
3738,6791184.0
2,5, 1, 5, 0, 5, 0.00,60.00,Thursday
135,57609860.1137362
3420,57609860.1137362
3738,6791184.0
2,5, 1, 5, 0, 6, 0.00,60.00,Thursday
135,57609860.1137362
3420,57609860.1137362
3738,6791184.0
2,5, 1, 5, 0, 7, 0.00,60.00,Thursday
135,96475895.09808713
3420,96475895.09808713
3738,6791184.0
2,5, 1, 5, 0, 8, 0.00,60.00,Thursday
135,171376443.681502
3420,171376443.681502
3738,116452513.29702951
2,5, 1, 5, 0, 9, 0.00,60.00,Thursday
135,310820223.0440482
3420,310820223.0440482
3738,62460505.17362101
2,5, 1, 5, 0,10, 0.00,60.00,Thursday
135,280667539.82951015
3420,280667539.8295101
3738,17611833.92521168
2,5, 1, 5, 0,11, 0.00,60.00,Thursday
135,280380429.1903369
3420,280380429.1903369
3738,11332843.620256178
2,5, 1, 5, 0,12, 0.00,60.00,Thursday
135,292833313.155963
3420,292833313.155963
3738,20890587.603837933
2,5, 1, 5, 0,13, 0.00,60.00,Thursday
135,292720712.3390458
3420,292720712.3390458
3738,31321012.974715285
2,5, 1, 5, 0,14, 0.00,60.00,Thursday
135,316973851.87867665
3420,316973851.8786766
3738,26187549.835845128
2,5, 1, 5, 0,15, 0.00,60.00,Thursday
135,310441901.62182456
3420,310441901.62182456
3738,20204759.7396811
2,5, 1, 5, 0,16, 0.00,60.00,Thursday
135,314408359.0629516
3420,314408359.06295156
3738,15641966.769513171
2,5, 1, 5, 0,17, 0.00,60.00,Thursday
135,317013680.91711587
3420,317013680.91711587
3738,25321926.22506818
2,5, 1, 5, 0,18, 0.00,60.00,Thursday
135,245725393.92649633
3420,245725393.92649633
3738,11104851.045516819
2,5, 1, 5, 0,19, 0.00,60.00,Thursday
135,132753083.59832689
3420,132753083.59832686
3738,16362363.74815494
2,5, 1, 5, 0,20, 0.00,60.00,Thursday
135,113569604.38930234
3420,113569604.38930234
3738,33566150.88583831
2,5, 1, 5, 0,21, 0.00,60.00,Thursday
135,102910895.06207252
3420,102910895.06207252
3738,45779532.399896026
2,5, 1, 5, 0,22, 0.00,60.00,Thursday
135,98267997.61519502
3420,98267997.61519504
3738,59793896.15709563
2,5, 1, 5, 0,23, 0.00,60.00,Thursday
135,77772390.65670998
3420,77772390.65670998
3738,6791184.0
2,5, 1, 5, 0,24, 0.00,60.00,Thursday
135,72442274.24247962
3420,72442274.24247962
3738,6791184.0
2,6, 1, 6, 0, 1, 0.00,60.00,Friday
135,57996196.7332391
3420,57996196.7332391
3738,6791184.0
2,6, 1, 6, 0, 2, 0.00,60.00,Friday
135,57609860.1137362
3420,57609860.1137362
3738,6791184.0
2,6, 1, 6, 0, 3, 0.00,60.00,Friday
135,57609860.1137362
3420,57609860.1137362
3738,6791184.0
2,6, 1, 6, 0, 4, 0.00,60.00,Friday
135,57609860.1137362
3420,57609860.1137362
3738,6791184.0
2,6, 1, 6, 0, 5, 0.00,60.00,Friday
135,57609860.1137362
3420,57609860.1137362
3738,6791184.0
2,6, 1, 6, 0, 6, 0.00,60.00,Friday
135,57609860.1137362
3420,57609860.1137362
3738,6791184.0
2,6, 1, 6, 0, 7, 0.00,60.00,Friday
135,101796955.50886627
3420,101796955.50886627
3738,6791184.0
2,6, 1, 6, 0, 8, 0.00,60.00,Friday
135,186376411.74445263
3420,186376411.74445263
3738,121407339.66992739
2,6, 1, 6, 0, 9, 0.00,60.00,Friday
135,312259794.2817241
3420,312259794.28172415
3738,86632366.17446303
2,6, 1, 6, 0,10, 0.00,60.00,Friday
135,270349992.9165297
3420,270349992.9165297
3738,79365564.0573879
2,6, 1, 6, 0,11, 0.00,60.00,Friday
135,263122578.83863226
3420,263122578.83863217
3738,68567630.18760759
2,6, 1, 6, 0,12, 0.00,60.00,Friday
135,281529740.8264385
3420,281529740.8264384
3738,44794775.80662609
2,6, 1, 6, 0,13, 0.00,60.00,Friday
135,290413542.26386994
3420,290413542.2638699
3738,28118590.643844083
2,6, 1, 6, 0,14, 0.00,60.00,Friday
135,303641645.29274267
3420,303641645.29274267
3738,27339353.23361222
2,6, 1, 6, 0,15, 0.00,60.00,Friday
135,290388695.66966736
3420,290388695.66966736
3738,19117529.856132437
2,6, 1, 6, 0,16, 0.00,60.00,Friday
135,293338934.1107566
3420,293338934.1107565
3738,15649407.694543684
2,6, 1, 6, 0,17, 0.00,60.00,Friday
135,303850819.7466534
3420,303850819.7466534
3738,25324622.02562765
2,6, 1, 6, 0,18, 0.00,60.00,Friday
135,251529335.3453762
3420,251529335.34537613
3738,51026173.914278835
2,6, 1, 6, 0,19, 0.00,60.00,Friday
135,131571614.03979154
3420,131571614.03979154
3738,78244829.0164056
2,6, 1, 6, 0,20, 0.00,60.00,Friday
135,113569604.38930234
3420,113569604.38930234
3738,81695275.64030877
2,6, 1, 6, 0,21, 0.00,60.00,Friday
135,104161303.80506988
3420,104161303.80506991
3738,99225795.24316338
2,6, 1, 6, 0,22, 0.00,60.00,Friday
135,100981366.83403769
3420,100981366.8340377
3738,98132935.48789668
2,6, 1, 6, 0,23, 0.00,60.00,Friday
135,77772390.65670998
3420,77772390.65670998
3738,6791184.0
2,6, 1, 6, 0,24, 0.00,60.00,Friday
135,72442274.24247962
3420,72442274.24247962
3738,6791184.0
2,7, 1, 7, 0, 1, 0.00,60.00,Saturday
135,46745513.81922844
3420,46745513.81922843
3738,6791184.0
2,7, 1, 7, 0, 2, 0.00,60.00,Saturday
135,46359235.70955593
3420,46359235.709555924
3738,6791184.0
2,7, 1, 7, 0, 3, 0.00,60.00,Saturday
135,46359235.70955593
3420,46359235.709555924
3738,6791184.0
2,7, 1, 7, 0, 4, 0.00,60.00,Saturday
135,46359235.70955593
3420,46359235.709555924
3738,6791184.0
2,7, 1, 7, 0, 5, 0.00,60.00,Saturday
135,46359235.70955593
3420,46359235.709555924
3738,6791184.0
2,7, 1, 7, 0, 6, 0.00,60.00,Saturday
135,46359235.70955593
3420,46359235.709555924
3738,6791184.0
2,7, 1, 7, 0, 7, 0.00,60.00,Saturday
135,112045397.13447125
3420,112045397.13447124
3738,6791184.0
2,7, 1, 7, 0, 8, 0.00,60.00,Saturday
135,141267785.141108
3420,141267785.14110798
3738,133157446.41606578
2,7, 1, 7, 0, 9, 0.00,60.00,Saturday
135,133989150.06697097
3420,133989150.06697097
3738,115591455.53531325
2,7, 1, 7, 0,10, 0.00,60.00,Saturday
135,135727689.24529898
3420,135727689.24529898
3738,102004718.05118337
2,7, 1, 7, 0,11, 0.00,60.00,Saturday
135,128569037.95632245
3420,128569037.95632243
3738,74098865.55179782
2,7, 1, 7, 0,12, 0.00,60.00,Saturday
135,138333736.160472
3420,138333736.16047204
3738,33791852.402420335
2,7, 1, 7, 0,13, 0.00,60.00,Saturday
135,97742399.63429794
3420,97742399.63429794
3738,21876445.261886
2,7, 1, 7, 0,14, 0.00,60.00,Saturday
135,86589719.73923467
3420,86589719.73923467
3738,22027810.097826336
2,7, 1, 7, 0,15, 0.00,60.00,Saturday
135,80777988.06353001
3420,80777988.06353001
3738,19602519.430706576
2,7, 1, 7, 0,16, 0.00,60.00,Saturday
135,76233398.28453368
3420,76233398.28453368
3738,27813772.079219498
2,7, 1, 7, 0,17, 0.00,60.00,Saturday
135,79184506.4506221
3420,79184506.4506221
3738,36639834.822964266
2,7, 1, 7, 0,18, 0.00,60.00,Saturday
135,83077160.33306564
3420,83077160.33306564
3738,51710312.388543054
2,7, 1, 7, 0,19, 0.00,60.00,Saturday
135,66276703.53612528
3420,66276703.53612528
3738,6791184.0
2,7, 1, 7, 0,20, 0.00,60.00,Saturday
135,49290893.81922844
3420,49290893.81922844
3738,6791184.0
2,7, 1, 7, 0,21, 0.00,60.00,Saturday
135,48904615.70955593
3420,48904615.70955593
3738,6791184.0
2,7, 1, 7, 0,22, 0.00,60.00,Saturday
135,48904615.70955593
3420,48904615.70955593
3738,6791184.0
2,7, 1, 7, 0,23, 0.00,60.00,Saturday
135,48904615.70955593
3420,48904615.70955593
3738,6791184.0
2,7, 1, 7, 0,24, 0.00,60.00,Saturday
135,48904615.70955593
3420,48904615.70955593
3738,6791184.0
2,8, 1, 8, 0, 1, 0.00,60.00,Sunday
135,46359235.70955593
3420,46359235.709555924
3738,6791184.0
2,8, 1, 8, 0, 2, 0.00,60.00,Sunday
135,46359235.70955593
3420,46359235.709555924
3738,6791184.0
2,8, 1, 8, 0, 3, 0.00,60.00,Sunday
135,46359235.70955593
3420,46359235.709555924
3738,6791184.0
2,8, 1, 8, 0, 4, 0.00,60.00,Sunday
135,46359235.70955593
3420,46359235.709555924
3738,6791184.0
2,8, 1, 8, 0, 5, 0.00,60.00,Sunday
135,46359235.70955593
3420,46359235.709555924
3738,6791184.0
2,8, 1, 8, 0, 6, 0.00,60.00,Sunday
135,46359235.70955593
3420,46359235.709555924
3738,6791184.0
2,8, 1, 8, 0, 7, 0.00,60.00,Sunday
135,66032185.73006148
3420,66032185.73006148
3738,6791184.0
2,8, 1, 8, 0, 8, 0.00,60.00,Sunday
135,53323580.330645084
3420,53323580.330645084
3738,6791184.0
2,8, 1, 8, 0, 9, 0.00,60.00,Sunday
135,46344166.24829911
3420,46344166.24829911
3738,6791184.0
2,8, 1, 8, 0,10, 0.00,60.00,Sunday
135,46288812.51597283
3420,46288812.51597283
3738,6791184.0
2,8, 1, 8, 0,11, 0.00,60.00,Sunday
135,47484362.26858969
3420,47484362.26858968
3738,6791184.0
2,8, 1, 8, 0,12, 0.00,60.00,Sunday
135,51179593.74556778
3420,51179593.74556778
3738,6791184.0
2,8, 1, 8, 0,13, 0.00,60.00,Sunday
135,54215695.98964084
3420,54215695.98964084
3738,6791184.0
2,8, 1, 8, 0,14, 0.00,60.00,Sunday
135,53712275.79024594
3420,53712275.79024595
3738,6791184.0
2,8, 1, 8, 0,15, 0.00,60.00,Sunday
135,54241123.65968816
3420,54241123.65968817
3738,6791184.0
2,8, 1, 8, 0,16, 0.00,60.00,Sunday
135,53527679.32047677
3420,53527679.32047677
3738,6791184.0
2,8, 1, 8, 0,17, 0.00,60.00,Sunday
135,49371975.328517206
3420,49371975.32851721
3738,6791184.0
2,8, 1, 8, 0,18, 0.00,60.00,Sunday
135,66276671.30593526
3420,66276671.30593526
3738,6791184.0
2,8, 1, 8, 0,19, 0.00,60.00,Sunday
135,57105773.81922845
3420,57105773.81922844
3738,6791184.0
2,8, 1, 8, 0,20, 0.00,60.00,Sunday
135,48904615.70955593
3420,48904615.70955593
3738,6791184.0
2,8, 1, 8, 0,21, 0.00,60.00,Sunday
135,48904615.70955593
3420,48904615.70955593
3738,6791184.0
2,8, 1, 8, 0,22, 0.00,60.00,Sunday
135,48904615.70955593
3420,48904615.70955593
3738,6791184.0
2,8, 1, 8, 0,23, 0.00,60.00,Sunday
135,48904615.70955593
3420,48904615.70955593
3738,6791184.0
2,8, 1, 8, 0,24, 0.00,60.00,Sunday
135,48904615.70955593
3420,48904615.70955593
3738,6791184.0
2,9, 1, 9, 0, 1, 0.00,60.00,Monday
135,57609860.1137362
3420,57609860.1137362
3738,6791184.0
2,9, 1, 9, 0, 2, 0.00,60.00,Monday
135,57609860.1137362
3420,57609860.1137362
3738,6791184.0
2,9, 1, 9, 0, 3, 0.00,60.00,Monday
135,57609860.1137362
3420,57609860.1137362
3738,6791184.0
2,9, 1, 9, 0, 4, 0.00,60.00,Monday
135,57609860.1137362
3420,57609860.1137362
3738,6791184.0
2,9, 1, 9, 0, 5, 0.00,60.00,Monday
135,57609860.1137362
3420,57609860.1137362
3738,6791184.0
2,9, 1, 9, 0, 6, 0.00,60.00,Monday
135,57609860.1137362
3420,57609860.1137362
3738,6791184.0
2,9, 1, 9, 0, 7, 0.00,60.00,Monday
135,129838666.60426006
3420,129838666.60426006
3738,6791184.0
2,9, 1, 9, 0, 8, 0.00,60.00,Monday
135,218518888.12348655
3420,218518888.12348658
3738,134380902.83575937
2,9, 1, 9, 0, 9, 0.00,60.00,Monday
135,314638918.17112017
3420,314638918.1711201
3738,81998984.12026045
2,9, 1, 9, 0,10, 0.00,60.00,Monday
135,274721647.805186
3420,274721647.8051859
3738,56632276.19356128
2,9, 1, 9, 0,11, 0.00,60.00,Monday
135,270499175.05766183
3420,270499175.0576618
3738,20617267.33758076
2,9, 1, 9, 0,12, 0.00,60.00,Monday
135,288524964.2642555
3420,288524964.2642555
3738,20903858.55266413
2,9, 1, 9, 0,13, 0.00,60.00,Monday
135,291311705.98358226
3420,291311705.98358226
3738,31355574.331207354
2,9, 1, 9, 0,14, 0.00,60.00,Monday
135,307540572.77855086
3420,307540572.7785509
3738,26214926.134798646
2,9, 1, 9, 0,15, 0.00,60.00,Monday
135,301967464.8088642
3420,301967464.8088641
3738,20131558.89601197
2,9, 1, 9, 0,16, 0.00,60.00,Monday
135,310843566.9321212
3420,310843566.9321212
3738,15659344.473694457
2,9, 1, 9, 0,17, 0.00,60.00,Monday
135,321452833.47960937
3420,321452833.4796093
3738,25336254.516831294
2,9, 1, 9, 0,18, 0.00,60.00,Monday
135,242258998.22798705
3420,242258998.227987
3738,12446379.627873426
2,9, 1, 9, 0,19, 0.00,60.00,Monday
135,131855773.56715691
3420,131855773.56715691
3738,31374127.951212678
2,9, 1, 9, 0,20, 0.00,60.00,Monday
135,113627434.43429929
3420,113627434.43429929
3738,40521043.61816716
2,9, 1, 9, 0,21, 0.00,60.00,Monday
135,104006602.88217768
3420,104006602.8821777
3738,30364656.390214298
2,9, 1, 9, 0,22, 0.00,60.00,Monday
135,100912985.16134015
3420,100912985.16134016
3738,37442983.58510228
2,9, 1, 9, 0,23, 0.00,60.00,Monday
135,77772390.65670998
3420,77772390.65670998
3738,6791184.0
2,9, 1, 9, 0,24, 0.00,60.00,Monday
135,72442274.24247962
3420,72442274.24247962
3738,6791184.0
2,10, 1,10, 0, 1, 0.00,60.00,Tuesday
135,57996196.7332391
3420,57996196.7332391
3738,6791184.0
2,10, 1,10, 0, 2, 0.00,60.00,Tuesday
135,57609860.1137362
3420,57609860.1137362
3738,6791184.0
2,10, 1,10, 0, 3, 0.00,60.00,Tuesday
135,57609860.1137362
3420,57609860.1137362
3738,6791184.0
2,10, 1,10, 0, 4, 0.00,60.00,Tuesday
135,57609860.1137362
3420,57609860.1137362
3738,6791184.0
2,10, 1,10, 0, 5, 0.00,60.00,Tuesday
135,57609860.1137362
3420,57609860.1137362
3738,6791184.0
2,10, 1,10, 0, 6, 0.00,60.00,Tuesday
135,57609860.1137362
3420,57609860.1137362
3738,6791184.0
2,10, 1,10, 0, 7, 0.00,60.00,Tuesday
135,112521374.2226084
3420,112521374.22260842
3738,6791184.0
2,10, 1,10, 0, 8, 0.00,60.00,Tuesday
135,194028709.12158164
3420,194028709.12158164
3738,148692744.37916672
2,10, 1,10, 0, 9, 0.00,60.00,Tuesday
135,308504640.3293427
3420,308504640.3293428
3738,95481822.61476013
2,10, 1,10, 0,10, 0.00,60.00,Tuesday
135,269352161.98682165
3420,269352161.98682165
3738,74186128.20130807
2,10, 1,10, 0,11, 0.00,60.00,Tuesday
135,261861776.68102112
3420,261861776.6810211
3738,63998877.31048862
2,10, 1,10, 0,12, 0.00,60.00,Tuesday
135,271654467.60270715
3420,271654467.60270715
3738,74728560.64747697
2,10, 1,10, 0,13, 0.00,60.00,Tuesday
135,290250100.9651653
3420,290250100.96516526
3738,56172393.850374945
2,10, 1,10, 0,14, 0.00,60.00,Tuesday
135,287609717.6377356
3420,287609717.6377356
3738,35584017.75968684
2,10, 1,10, 0,15, 0.00,60.00,Tuesday
135,279664470.08694136
3420,279664470.0869413
3738,16030822.50944715
2,10, 1,10, 0,16, 0.00,60.00,Tuesday
135,281806238.43713397
3420,281806238.4371339
3738,17496004.188273042
2,10, 1,10, 0,17, 0.00,60.00,Tuesday
135,292959292.6262783
3420,292959292.6262783
3738,23944614.210523333
2,10, 1,10, 0,18, 0.00,60.00,Tuesday
135,249953560.24440947
3420,249953560.24440947
3738,49547833.36501777
2,10, 1,10, 0,19, 0.00,60.00,Tuesday
135,131323992.87360883
3420,131323992.87360886
3738,101940993.37987019
2,10, 1,10, 0,20, 0.00,60.00,Tuesday
135,114598512.9087143
3420,114598512.9087143
3738,110984172.78270239
2,10, 1,10, 0,21, 0.00,60.00,Tuesday
135,106654249.6578944
3420,106654249.6578944
3738,125575972.32028641
2,10, 1,10, 0,22, 0.00,60.00,Tuesday
135,106929151.30381429
3420,106929151.3038143
3738,142212006.44802025
2,10, 1,10, 0,23, 0.00,60.00,Tuesday
135,77772390.65670998
3420,77772390.65670998
3738,6791184.0
2,10, 1,10, 0,24, 0.00,60.00,Tuesday
135,72442274.24247962
3420,72442274.24247962
3738,6791184.0
2,11, 1,11, 0, 1, 0.00,60.00,Wednesday
135,57996196.7332391
3420,57996196.7332391
3738,6791184.0
2,11, 1,11, 0, 2, 0.00,60.00,Wednesday
135,57609860.1137362
3420,57609860.1137362
3738,6791184.0
2,11, 1,11, 0, 3, 0.00,60.00,Wednesday
135,57609860.1137362
3420,57609860.1137362
3738,6791184.0
2,11, 1,11, 0, 4, 0.00,60.00,Wednesday
135,57609860.1137362
3420,57609860.1137362
3738,6791184.0
2,11, 1,11, 0, 5, 0.00,60.00,Wednesday
135,57609860.1137362
3420,57609860.1137362
3738,6791184.0
2,11, 1,11, 0, 6, 0.00,60.00,Wednesday
135,57609860.1137362
3420,57609860.1137362
3738,6791184.0
2,11, 1,11, 0, 7, 0.00,60.00,Wednesday
135,123485231.39564419
3420,123485231.39564419
3738,6791184.0
2,11, 1,11, 0, 8, 0.00,60.00,Wednesday
135,203077275.16979304
3420,203077275.16979304
3738,116122831.04217105
2,11, 1,11, 0, 9, 0.00,60.00,Wednesday
135,313971716.4216613
3420,313971716.4216613
3738,74376352.2500705
2,11, 1,11, 0,10, 0.00,60.00,Wednesday
135,273396726.24758005
3420,273396726.24757993
3738,58192511.35460721
2,11, 1,11, 0,11, 0.00,60.00,Wednesday
135,268263041.63680345
3420,268263041.63680342
3738,27698556.140712917
2,11, 1,11, 0,12, 0.00,60.00,Wednesday
135,280743053.8873017
3420,280743053.8873016
3738,32390002.45144968
2,11, 1,11, 0,13, 0.00,60.00,Wednesday
135,287781196.9833369
3420,287781196.98333687
3738,45127535.20203708
2,11, 1,11, 0,14, 0.00,60.00,Wednesday
135,285706895.17368096
3420,285706895.17368096
3738,33550475.242159955
2,11, 1,11, 0,15, 0.00,60.00,Wednesday
135,270262330.3547125
3420,270262330.3547124
3738,25018467.416574284
2,11, 1,11, 0,16, 0.00,60.00,Wednesday
135,268993667.73684883
3420,268993667.73684883
3738,33632086.701907024
2,11, 1,11, 0,17, 0.00,60.00,Wednesday
135,285531949.5347377
3420,285531949.53473765
3738,63572061.11874413
2,11, 1,11, 0,18, 0.00,60.00,Wednesday
135,247476519.52073196
3420,247476519.52073193
3738,68971879.71156174
2,11, 1,11, 0,19, 0.00,60.00,Wednesday
135,132700328.05116072
3420,132700328.05116072
3738,107275628.05758184
2,11, 1,11, 0,20, 0.00,60.00,Wednesday
135,116150910.27302821
3420,116150910.27302821
3738,120414637.35305813
2,11, 1,11, 0,21, 0.00,60.00,Wednesday
135,109299605.19424896
3420,109299605.19424899
3738,124284831.78104743
2,11, 1,11, 0,22, 0.00,60.00,Wednesday
135,108884759.7421676
3420,108884759.74216762
3738,138337463.6139856
2,11, 1,11, 0,23, 0.00,60.00,Wednesday
135,77772390.65670998
3420,77772390.65670998
3738,6791184.0
2,11, 1,11, 0,24, 0.00,60.00,Wednesday
135,72442274.24247962
3420,72442274.24247962
3738,6791184.0
2,12, 1,12, 0, 1, 0.00,60.00,Thursday
135,57996196.7332391
3420,57996196.7332391
3738,6791184.0
2,12, 1,12, 0, 2, 0.00,60.00,Thursday
135,57609860.1137362
3420,57609860.1137362
3738,6791184.0
2,12, 1,12, 0, 3, 0.00,60.00,Thursday
135,57609860.1137362
3420,57609860.1137362
3738,6791184.0
2,12, 1,12, 0, 4, 0.00,60.00,Thursday
135,57609860.1137362
3420,57609860.1137362
3738,6791184.0
2,12, 1,12, 0, 5, 0.00,60.00,Thursday
135,57609860.1137362
3420,57609860.1137362
3738,6791184.0
2,12, 1,12, 0, 6, 0.00,60.00,Thursday
135,57609860.1137362
3420,57609860.1137362
3738,6791184.0
2,12, 1,12, 0, 7, 0.00,60.00,Thursday
135,121887132.98988226
3420,121887132.98988226
3738,6791184.0
2,12, 1,12, 0, 8, 0.00,60.00,Thursday
135,207121796.0342815
3420,207121796.03428146
3738,156267200.14786875
2,12, 1,12, 0, 9, 0.00,60.00,Thursday
135,313481159.3293245
3420,313481159.3293245
3738,98719608.0040323
2,12, 1,12, 0,10, 0.00,60.00,Thursday
135,268574488.0042417
3420,268574488.0042417
3738,83361496.71702632
2,12, 1,12, 0,11, 0.00,60.00,Thursday
135,260955456.3179282
3420,260955456.31792817
3738,64674148.48221532
2,12, 1,12, 0,12, 0.00,60.00,Thursday
135,273065970.0945533
3420,273065970.0945533
3738,58402134.99696289
2,12, 1,12, 0,13, 0.00,60.00,Thursday
135,292793248.3156091
3420,292793248.3156091
3738,51342998.96348971
2,12, 1,12, 0,14, 0.00,60.00,Thursday
135,283993648.2020461
3420,283993648.2020461
3738,46559343.93863308
2,12, 1,12, 0,15, 0.00,60.00,Thursday
135,268730389.8201333
3420,268730389.82013327
3738,28218819.57754655
2,12, 1,12, 0,16, 0.00,60.00,Thursday
135,268576311.0824512
3420,268576311.0824512
3738,35022428.428647615
2,12, 1,12, 0,17, 0.00,60.00,Thursday
135,287193222.6584737
3420,287193222.65847373
3738,41354595.120372355
2,12, 1,12, 0,18, 0.00,60.00,Thursday
135,249274423.1021962
3420,249274423.10219622
3738,54455329.60634888
2,12, 1,12, 0,19, 0.00,60.00,Thursday
135,134604941.67017776
3420,134604941.67017776
3738,81635308.74878833
2,12, 1,12, 0,20, 0.00,60.00,Thursday
135,114931361.63743183
3420,114931361.63743183
3738,78921452.08656196
2,12, 1,12, 0,21, 0.00,60.00,Thursday
135,106622843.41617428
3420,106622843.41617428
3738,82408173.19834018
2,12, 1,12, 0,22, 0.00,60.00,Thursday
135,104505580.837477
3420,104505580.83747701
3738,85776321.18943806
2,12, 1,12, 0,23, 0.00,60.00,Thursday
135,77772390.65670998
3420,77772390.65670998
3738,6791184.0
2,12, 1,12, 0,24, 0.00,60.00,Thursday
135,72442274.24247962
3420,72442274.24247962
3738,6791184.0
2,13, 1,13, 0, 1, 0.00,60.00,Friday
135,57996196.7332391
3420,57996196.7332391
3738,6791184.0