Program Version,EnergyPlus, Version 9.6.0-f420c06a69, YMD=2022.07.06 16:22
1,5,Environment Title[],Latitude[deg],Longitude[deg],Time Zone[],Elevation[m]
2,8,Day of Simulation[],Month[],Day of Month[],DST Indicator[1=yes 0=no],Hour[],StartMinute[],EndMinute[],DayType
3,5,Cumulative Day of Simulation[],Month[],Day of Month[],DST Indicator[1=yes 0=no],DayType  ! When Daily Meters Requested
4,2,Cumulative Days of Simulation[],Month[]  ! When Monthly Meters Requested
5,1,Cumulative Days of Simulation[] ! When Run Period Meters Requested
6,1,Calendar Year of Simulation[] ! When Annual Meters Requested
135,1,Electricity:Facility [J] !Hourly
3420,1,ElectricityNet:Facility [J] !Hourly
3738,1,NaturalGas:Facility [J] !Hourly
End of Data Dictionary
1,RUNPERIOD 1,  35.04,-106.62,  -7.00,1619.00
2,1, 1, 1, 0, 1, 0.00,60.00,Holiday
135,46359074.93593144
3420,46359074.93593143
3738,6791184.0
2,1, 1, 1, 0, 2, 0.00,60.00,Holiday
135,46359235.70955593
3420,46359235.709555924
3738,6791184.0
2,1, 1, 1, 0, 3, 0.00,60.00,Holiday
135,46359235.70955593
3420,46359235.709555924
3738,6791184.0
2,1, 1, 1, 0, 4, 0.00,60.00,Holiday
135,46359235.70955593
3420,46359235.709555924
3738,6791184.0
2,1, 1, 1, 0, 5, 0.00,60.00,Holiday
135,46359235.70955593
3420,46359235.709555924
3738,6791184.0
2,1, 1, 1, 0, 6, 0.00,60.00,Holiday
135,46359235.70955593
3420,46359235.709555924
3738,6791184.0
2,1, 1, 1, 0, 7, 0.00,60.00,Holiday
135,66032185.73006148
3420,66032185.73006148
3738,6791184.0
2,1, 1, 1, 0, 8, 0.00,60.00,Holiday
135,50074623.774579875
3420,50074623.774579875
3738,6791184.0
2,1, 1, 1, 0, 9, 0.00,60.00,Holiday
135,46351708.9331394
3420,46351708.9331394
3738,6791184.0
2,1, 1, 1, 0,10, 0.00,60.00,Holiday
135,46288813.17904917
3420,46288813.179049164
3738,6791184.0
2,1, 1, 1, 0,11, 0.00,60.00,Holiday
135,50556028.58634514
3420,50556028.58634514
3738,6791184.0
2,1, 1, 1, 0,12, 0.00,60.00,Holiday
135,53620061.07971074
3420,53620061.07971075
3738,6791184.0
2,1, 1, 1, 0,13, 0.00,60.00,Holiday
135,54251377.4482968
3420,54251377.44829681
3738,6791184.0
2,1, 1, 1, 0,14, 0.00,60.00,Holiday
135,58744815.664830714
3420,58744815.66483073
3738,6791184.0
2,1, 1, 1, 0,15, 0.00,60.00,Holiday
135,64652365.25448359
3420,64652365.25448359
3738,6791184.0
2,1, 1, 1, 0,16, 0.00,60.00,Holiday
135,62671968.53224909
3420,62671968.53224909
3738,6791184.0
2,1, 1, 1, 0,17, 0.00,60.00,Holiday
135,54610940.42094375
3420,54610940.42094375
3738,6791184.0
2,1, 1, 1, 0,18, 0.00,60.00,Holiday
135,66905826.86107348
3420,66905826.86107348
3738,6791184.0
2,1, 1, 1, 0,19, 0.00,60.00,Holiday
135,57105773.81922845
3420,57105773.81922844
3738,6791184.0
2,1, 1, 1, 0,20, 0.00,60.00,Holiday
135,48904615.70955593
3420,48904615.70955593
3738,6791184.0
2,1, 1, 1, 0,21, 0.00,60.00,Holiday
135,48904615.70955593
3420,48904615.70955593
3738,6791184.0
2,1, 1, 1, 0,22, 0.00,60.00,Holiday
135,48904615.70955593
3420,48904615.70955593
3738,6791184.0
2,1, 1, 1, 0,23, 0.00,60.00,Holiday
135,48904615.70955593
3420,48904615.70955593
3738,6791184.0
2,1, 1, 1, 0,24, 0.00,60.00,Holiday
135,48904615.70955593
3420,48904615.70955593
3738,6791184.0
2,2, 1, 2, 0, 1, 0.00,60.00,Monday
135,57609860.1137362
3420,57609860.1137362
3738,6791184.0
2,2, 1, 2, 0, 2, 0.00,60.00,Monday
135,57609860.1137362
3420,57609860.1137362
3738,6791184.0
2,2, 1, 2, 0, 3, 0.00,60.00,Monday
135,57609860.1137362
3420,57609860.1137362
3738,6791184.0
2,2, 1, 2, 0, 4, 0.00,60.00,Monday
135,57609860.1137362
3420,57609860.1137362
3738,6791184.0
2,2, 1, 2, 0, 5, 0.00,60.00,Monday
135,57609860.1137362
3420,57609860.1137362
3738,6791184.0
2,2, 1, 2, 0, 6, 0.00,60.00,Monday
135,57609860.1137362
3420,57609860.1137362
3738,6791184.0
2,2, 1, 2, 0, 7, 0.00,60.00,Monday
135,134878218.9732619
3420,134878218.97326186
3738,6791184.0
2,2, 1, 2, 0, 8, 0.00,60.00,Monday
135,224447349.34681612
3420,224447349.34681612
3738,144051788.3317502
2,2, 1, 2, 0, 9, 0.00,60.00,Monday
135,310113173.5226268
3420,310113173.52262676
3738,88876839.65152809
2,2, 1, 2, 0,10, 0.00,60.00,Monday
135,271365063.6523837
3420,271365063.6523836
3738,60265923.85270449
2,2, 1, 2, 0,11, 0.00,60.00,Monday
135,268042805.41555253
3420,268042805.41555253
3738,22324186.92765486
2,2, 1, 2, 0,12, 0.00,60.00,Monday
135,288256589.4717232
3420,288256589.4717232
3738,20876794.54329522
2,2, 1, 2, 0,13, 0.00,60.00,Monday
135,289626908.83261126
3420,289626908.83261126
3738,31334423.78333511
2,2, 1, 2, 0,14, 0.00,60.00,Monday
135,304560312.7598077
3420,304560312.75980777
3738,26165958.14784857
2,2, 1, 2, 0,15, 0.00,60.00,Monday
135,297207055.59561163
3420,297207055.5956117
3738,16649506.089210246
2,2, 1, 2, 0,16, 0.00,60.00,Monday
135,301765850.1485542
3420,301765850.1485542
3738,19089949.697671723
2,2, 1, 2, 0,17, 0.00,60.00,Monday
135,300883689.7626623
3420,300883689.7626623
3738,20696611.81849547
2,2, 1, 2, 0,18, 0.00,60.00,Monday
135,237763786.45298475
3420,237763786.45298478
3738,22828722.127478585
2,2, 1, 2, 0,19, 0.00,60.00,Monday
135,131185250.1779861
3420,131185250.1779861
3738,54000351.72755138
2,2, 1, 2, 0,20, 0.00,60.00,Monday
135,115788227.31176195
3420,115788227.31176195
3738,68630236.21559957
2,2, 1, 2, 0,21, 0.00,60.00,Monday
135,107180701.07736793
3420,107180701.07736793
3738,80740475.22169581
2,2, 1, 2, 0,22, 0.00,60.00,Monday
135,104935694.04120313
3420,104935694.04120316
3738,82360406.46165311
2,2, 1, 2, 0,23, 0.00,60.00,Monday
135,77772390.65670998
3420,77772390.65670998
3738,6791184.0
2,2, 1, 2, 0,24, 0.00,60.00,Monday
135,72442274.24247962
3420,72442274.24247962
3738,6791184.0
2,3, 1, 3, 0, 1, 0.00,60.00,Tuesday
135,57996196.7332391
3420,57996196.7332391
3738,6791184.0
2,3, 1, 3, 0, 2, 0.00,60.00,Tuesday
135,57609860.1137362
3420,57609860.1137362
3738,6791184.0
2,3, 1, 3, 0, 3, 0.00,60.00,Tuesday
135,57609860.1137362
3420,57609860.1137362
3738,6791184.0
2,3, 1, 3, 0, 4, 0.00,60.00,Tuesday
135,57609860.1137362
3420,57609860.1137362
3738,6791184.0
2,3, 1, 3, 0, 5, 0.00,60.00,Tuesday
135,57609860.1137362
3420,57609860.1137362
3738,6791184.0
2,3, 1, 3, 0, 6, 0.00,60.00,Tuesday
135,57609860.1137362
3420,57609860.1137362
3738,6791184.0
2,3, 1, 3, 0, 7, 0.00,60.00,Tuesday
135,110246891.9321736
3420,110246891.9321736
3738,6791184.0
2,3, 1, 3, 0, 8, 0.00,60.00,Tuesday
135,189787777.19002396
3420,189787777.19002393
3738,127893569.43827754
2,3, 1, 3, 0, 9, 0.00,60.00,Tuesday
135,311735474.6462774
3420,311735474.64627737
3738,74048611.90492582
2,3, 1, 3, 0,10, 0.00,60.00,Tuesday
135,277285498.1859546
3420,277285498.1859546
3738,33473696.454957783
2,3, 1, 3, 0,11, 0.00,60.00,Tuesday
135,276669119.4453627
3420,276669119.44536257
3738,11005409.7709702
2,3, 1, 3, 0,12, 0.00,60.00,Tuesday
135,294510040.65947235
3420,294510040.65947235
3738,23274910.85150368
2,3, 1, 3, 0,13, 0.00,60.00,Tuesday
135,296008760.87337774
3420,296008760.87337774
3738,31313196.53816751
2,3, 1, 3, 0,14, 0.00,60.00,Tuesday
135,312459596.2197046
3420,312459596.2197046
3738,26179341.570204668
2,3, 1, 3, 0,15, 0.00,60.00,Tuesday
135,300132587.72396576
3420,300132587.72396576
3738,20134709.813017763
2,3, 1, 3, 0,16, 0.00,60.00,Tuesday
135,303905456.6083193
3420,303905456.6083192
3738,15642458.513267582
2,3, 1, 3, 0,17, 0.00,60.00,Tuesday
135,306143708.642809
3420,306143708.6428089
3738,20958292.106283188
2,3, 1, 3, 0,18, 0.00,60.00,Tuesday
135,241887659.15678734
3420,241887659.15678728
3738,17408500.555825397
2,3, 1, 3, 0,19, 0.00,60.00,Tuesday
135,131936317.85543132
3420,131936317.85543132
3738,31714708.765812345
2,3, 1, 3, 0,20, 0.00,60.00,Tuesday
135,113569604.38930234
3420,113569604.38930234
3738,51650092.05562477
2,3, 1, 3, 0,21, 0.00,60.00,Tuesday
135,102910895.06207252
3420,102910895.06207252
3738,60710470.68437332
2,3, 1, 3, 0,22, 0.00,60.00,Tuesday
135,99700727.8095243
3420,99700727.80952433
3738,89792459.07201333
2,3, 1, 3, 0,23, 0.00,60.00,Tuesday
135,77772390.65670998
3420,77772390.65670998
3738,6791184.0
2,3, 1, 3, 0,24, 0.00,60.00,Tuesday
135,72442274.24247962
3420,72442274.24247962
3738,6791184.0
2,4, 1, 4, 0, 1, 0.00,60.00,Wednesday
135,57996196.7332391
3420,57996196.7332391
3738,6791184.0
2,4, 1, 4, 0, 2, 0.00,60.00,Wednesday
135,57609860.1137362
3420,57609860.1137362
3738,6791184.0
2,4, 1, 4, 0, 3, 0.00,60.00,Wednesday
135,57609860.1137362
3420,57609860.1137362
3738,6791184.0
2,4, 1, 4, 0, 4, 0.00,60.00,Wednesday
135,57609860.1137362
3420,57609860.1137362
3738,6791184.0
2,4, 1, 4, 0, 5, 0.00,60.00,Wednesday
135,57609860.1137362
3420,57609860.1137362
3738,6791184.0
2,4, 1, 4, 0, 6, 0.00,60.00,Wednesday
135,57609860.1137362
3420,57609860.1137362
3738,6791184.0
2,4, 1, 4, 0, 7, 0.00,60.00,Wednesday
135,106404852.69745946
3420,106404852.69745946
3738,6791184.0
2,4, 1, 4, 0, 8, 0.00,60.00,Wednesday
135,188565720.77044547
3420,188565720.77044547
3738,148199627.5746022
2,4, 1, 4, 0, 9, 0.00,60.00,Wednesday
135,309354701.0787325
3420,309354701.07873243
3738,87295595.8595211
2,4, 1, 4, 0,10, 0.00,60.00,Wednesday
135,271026351.7007154
3420,271026351.7007154
3738,59254591.49081121
2,4, 1, 4, 0,11, 0.00,60.00,Wednesday
135,265318671.5172772
3420,265318671.51727718
3738,39948447.48624557
2,4, 1, 4, 0,12, 0.00,60.00,Wednesday
135,279645244.1066742
3420,279645244.1066742
3738,25541763.37515947
2,4, 1, 4, 0,13, 0.00,60.00,Wednesday
135,285036500.36897314
3420,285036500.36897314
3738,31353602.7696282
2,4, 1, 4, 0,14, 0.00,60.00,Wednesday
135,290685247.22720414
3420,290685247.2272042
3738,26188331.40128117
2,4, 1, 4, 0,15, 0.00,60.00,Wednesday
135,275869938.016961
3420,275869938.016961
3738,20161876.077216543
2,4, 1, 4, 0,16, 0.00,60.00,Wednesday
135,275561594.01921284
3420,275561594.01921284
3738,15652007.014608864
2,4, 1, 4, 0,17, 0.00,60.00,Wednesday
135,295050112.0482503
3420,295050112.0482503
3738,25318932.60453754
2,4, 1, 4, 0,18, 0.00,60.00,Wednesday
135,250937232.52106398
3420,250937232.521064
3738,18172635.687563766
2,4, 1, 4, 0,19, 0.00,60.00,Wednesday
135,131963474.08535361
3420,131963474.08535364
3738,34092719.66975884
2,4, 1, 4, 0,20, 0.00,60.00,Wednesday
135,113569604.38930234
3420,113569604.38930234
3738,48641009.18389044
2,4, 1, 4, 0,21, 0.00,60.00,Wednesday
135,102910895.06207252
3420,102910895.06207252
3738,62017398.94849987
2,4, 1, 4, 0,22, 0.00,60.00,Wednesday
135,98643202.27409184
3420,98643202.27409185
3738,73472639.48549943
2,4, 1, 4, 0,23, 0.00,60.00,Wednesday
135,77772390.65670998
3420,77772390.65670998
3738,6791184.0
2,4, 1, 4, 0,24, 0.00,60.00,Wednesday
135,72442274.24247962
3420,72442274.24247962
3738,6791184.0
2,5, 1, 5, 0, 1, 0.00,60.00,Thursday
135,57996196.7332391
3420,57996196.7332391
3738,6791184.0
2,5, 1, 5, 0, 2, 0.00,60.00,Thursday
135,57609860.1137362
3420,57609860.1137362
3738,6791184.0
2,5, 1, 5, 0, 3, 0.00,60.00,Thursday
135,57609860.1137362
3420,57609860.1137362
3738,6791184.0
2,5, 1, 5, 0, 4, 0.00,60.00,Thursday
135,57609860.1137362
3420,57609860.1137362
3738,6791184.0
2,5, 1, 5, 0, 5, 0.00,60.00,Thursday
135,57609860.1137362
3420,57609860.1137362
3738,6791184.0
2,5, 1, 5, 0, 6, 0.00,60.00,Thursday
135,57609860.1137362
3420,57609860.1137362
3738,6791184.0
2,5, 1, 5, 0, 7, 0.00,60.00,Thursday
135,99605482.22971714
3420,99605482.22971717
3738,6791184.0
2,5, 1, 5, 0, 8, 0.00,60.00,Thursday
135,176848803.66143382
3420,176848803.66143382
3738,118918519.20036617
2,5, 1, 5, 0, 9, 0.00,60.00,Thursday
135,310410716.45027816
3420,310410716.45027816
3738,63718647.53624899
2,5, 1, 5, 0,10, 0.00,60.00,Thursday
135,279145913.06611407
3420,279145913.06611407
3738,18769758.24929616
2,5, 1, 5, 0,11, 0.00,60.00,Thursday
135,278477659.7647417
3420,278477659.76474166
3738,11332778.247828975
2,5, 1, 5, 0,12, 0.00,60.00,Thursday
135,291018123.9829017
3420,291018123.9829017
3738,20890680.988424744
2,5, 1, 5, 0,13, 0.00,60.00,Thursday
135,291884732.64979345
3420,291884732.6497935
3738,31320938.161408074
2,5, 1, 5, 0,14, 0.00,60.00,Thursday
135,314588481.8216781
3420,314588481.8216781
3738,26189110.105443515
2,5, 1, 5, 0,15, 0.00,60.00,Thursday
135,307964088.8082272
3420,307964088.8082271
3738,20204411.469256587
2,5, 1, 5, 0,16, 0.00,60.00,Thursday
135,311795498.4440459
3420,311795498.44404584
3738,15641762.104225928
2,5, 1, 5, 0,17, 0.00,60.00,Thursday
135,314785696.07502025
3420,314785696.07502025
3738,25321980.125197552
2,5, 1, 5, 0,18, 0.00,60.00,Thursday
135,245034952.2600156
3420,245034952.26001555
3738,11105506.040833417
2,5, 1, 5, 0,19, 0.00,60.00,Thursday
135,132573443.45313579
3420,132573443.45313579
3738,16555481.42229817
2,5, 1, 5, 0,20, 0.00,60.00,Thursday
135,113569604.38930234
3420,113569604.38930234
3738,34414366.35249759
2,5, 1, 5, 0,21, 0.00,60.00,Thursday
135,102910895.06207252
3420,102910895.06207252
3738,46617038.61522231
2,5, 1, 5, 0,22, 0.00,60.00,Thursday
135,98267997.61519502
3420,98267997.61519504
3738,60475483.2077232
2,5, 1, 5, 0,23, 0.00,60.00,Thursday
135,77772390.65670998
3420,77772390.65670998
3738,6791184.0
2,5, 1, 5, 0,24, 0.00,60.00,Thursday
135,72442274.24247962
3420,72442274.24247962
3738,6791184.0
2,6, 1, 6, 0, 1, 0.00,60.00,Friday
135,57996196.7332391
3420,57996196.7332391
3738,6791184.0
2,6, 1, 6, 0, 2, 0.00,60.00,Friday
135,57609860.1137362
3420,57609860.1137362
3738,6791184.0
2,6, 1, 6, 0, 3, 0.00,60.00,Friday
135,57609860.1137362
3420,57609860.1137362
3738,6791184.0
2,6, 1, 6, 0, 4, 0.00,60.00,Friday
135,57609860.1137362
3420,57609860.1137362
3738,6791184.0
2,6, 1, 6, 0, 5, 0.00,60.00,Friday
135,57609860.1137362
3420,57609860.1137362
3738,6791184.0
2,6, 1, 6, 0, 6, 0.00,60.00,Friday
135,57609860.1137362
3420,57609860.1137362
3738,6791184.0
2,6, 1, 6, 0, 7, 0.00,60.00,Friday
135,102536604.15187512
3420,102536604.15187512
3738,6791184.0
2,6, 1, 6, 0, 8, 0.00,60.00,Friday
135,187551042.7005965
3420,187551042.7005965
3738,116244357.95139652
2,6, 1, 6, 0, 9, 0.00,60.00,Friday
135,312494616.18781155
3420,312494616.18781155
3738,81842471.6240665
2,6, 1, 6, 0,10, 0.00,60.00,Friday
135,270632204.0472729
3420,270632204.0472729
3738,73557882.43296418
2,6, 1, 6, 0,11, 0.00,60.00,Friday
135,263459655.771864
3420,263459655.77186394
3738,62218011.406320095
2,6, 1, 6, 0,12, 0.00,60.00,Friday
135,282440065.24059665
3420,282440065.2405966
3738,39026296.64920927
2,6, 1, 6, 0,13, 0.00,60.00,Friday
135,292256076.8449418
3420,292256076.8449418
3738,28007800.673672196
2,6, 1, 6, 0,14, 0.00,60.00,Friday
135,304050831.1228251
3420,304050831.1228251
3738,27453211.082556453
2,6, 1, 6, 0,15, 0.00,60.00,Friday
135,289742975.6243088
3420,289742975.62430876
3738,19011554.154199284
2,6, 1, 6, 0,16, 0.00,60.00,Friday
135,292285876.14124376
3420,292285876.14124364
3738,15649161.505926851
2,6, 1, 6, 0,17, 0.00,60.00,Friday
135,304607870.541993
3420,304607870.54199296
3738,25324697.96934791
2,6, 1, 6, 0,18, 0.00,60.00,Friday
135,251590394.51159662
3420,251590394.51159665
3738,40349884.97640458
2,6, 1, 6, 0,19, 0.00,60.00,Friday
135,131216488.08580981
3420,131216488.08580981
3738,59725488.3446992
2,6, 1, 6, 0,20, 0.00,60.00,Friday
135,113569604.38930234
3420,113569604.38930234
3738,62369783.532889836
2,6, 1, 6, 0,21, 0.00,60.00,Friday
135,103370349.24137825
3420,103370349.24137825
3738,79015147.59213746
2,6, 1, 6, 0,22, 0.00,60.00,Friday
135,100029200.67941919
3420,100029200.67941919
3738,77310991.98975465
2,6, 1, 6, 0,23, 0.00,60.00,Friday
135,77772390.65670998
3420,77772390.65670998
3738,6791184.0
2,6, 1, 6, 0,24, 0.00,60.00,Friday
135,72442274.24247962
3420,72442274.24247962
3738,6791184.0
2,7, 1, 7, 0, 1, 0.00,60.00,Saturday
135,46745513.81922844
3420,46745513.81922843
3738,6791184.0
2,7, 1, 7, 0, 2, 0.00,60.00,Saturday
135,46359235.70955593
3420,46359235.709555924
3738,6791184.0
2,7, 1, 7, 0, 3, 0.00,60.00,Saturday
135,46359235.70955593
3420,46359235.709555924
3738,6791184.0
2,7, 1, 7, 0, 4, 0.00,60.00,Saturday
135,46359235.70955593
3420,46359235.709555924
3738,6791184.0
2,7, 1, 7, 0, 5, 0.00,60.00,Saturday
135,46359235.70955593
3420,46359235.709555924
3738,6791184.0
2,7, 1, 7, 0, 6, 0.00,60.00,Saturday
135,46359235.70955593
3420,46359235.709555924
3738,6791184.0
2,7, 1, 7, 0, 7, 0.00,60.00,Saturday
135,106833714.46498992
3420,106833714.46498992
3738,6791184.0
2,7, 1, 7, 0, 8, 0.00,60.00,Saturday
135,129649962.09830202
3420,129649962.09830204
3738,102248969.25200075
2,7, 1, 7, 0, 9, 0.00,60.00,Saturday
135,130198288.74743702
3420,130198288.74743702
3738,83010137.88056436
2,7, 1, 7, 0,10, 0.00,60.00,Saturday
135,133611167.46845439
3420,133611167.46845436
3738,67650910.49203427
2,7, 1, 7, 0,11, 0.00,60.00,Saturday
135,127132754.7542963
3420,127132754.75429629
3738,38859627.26743234
2,7, 1, 7, 0,12, 0.00,60.00,Saturday
135,136546197.8931493
3420,136546197.8931493
3738,9586113.569895849
2,7, 1, 7, 0,13, 0.00,60.00,Saturday
135,96444827.53785464
3420,96444827.53785466
3738,6791184.0
2,7, 1, 7, 0,14, 0.00,60.00,Saturday
135,86597984.17851722
3420,86597984.17851724
3738,6791184.0
2,7, 1, 7, 0,15, 0.00,60.00,Saturday
135,80777988.06353001
3420,80777988.06353001
3738,6791184.0
2,7, 1, 7, 0,16, 0.00,60.00,Saturday
135,76233398.28453368
3420,76233398.28453368
3738,6791184.0
2,7, 1, 7, 0,17, 0.00,60.00,Saturday
135,78316963.22306694
3420,78316963.22306694
3738,6791184.0
2,7, 1, 7, 0,18, 0.00,60.00,Saturday
135,83077160.33306564
3420,83077160.33306564
3738,13949610.607058603
2,7, 1, 7, 0,19, 0.00,60.00,Saturday
135,66276703.53612528
3420,66276703.53612528
3738,6791184.0
2,7, 1, 7, 0,20, 0.00,60.00,Saturday
135,49290893.81922844
3420,49290893.81922844
3738,6791184.0
2,7, 1, 7, 0,21, 0.00,60.00,Saturday
135,48904615.70955593
3420,48904615.70955593
3738,6791184.0
2,7, 1, 7, 0,22, 0.00,60.00,Saturday
135,48904615.70955593
3420,48904615.70955593
3738,6791184.0
2,7, 1, 7, 0,23, 0.00,60.00,Saturday
135,48904615.70955593
3420,48904615.70955593
3738,6791184.0
2,7, 1, 7, 0,24, 0.00,60.00,Saturday
135,48904615.70955593
3420,48904615.70955593
3738,6791184.0
2,8, 1, 8, 0, 1, 0.00,60.00,Sunday
135,46359235.70955593
3420,46359235.709555924
3738,6791184.0
2,8, 1, 8, 0, 2, 0.00,60.00,Sunday
135,46359235.70955593
3420,46359235.709555924
3738,6791184.0
2,8, 1, 8, 0, 3, 0.00,60.00,Sunday
135,46359235.70955593
3420,46359235.709555924
3738,6791184.0
2,8, 1, 8, 0, 4, 0.00,60.00,Sunday
135,46359235.70955593
3420,46359235.709555924
3738,6791184.0
2,8, 1, 8, 0, 5, 0.00,60.00,Sunday
135,46359235.70955593
3420,46359235.709555924
3738,6791184.0
2,8, 1, 8, 0, 6, 0.00,60.00,Sunday
135,46359235.70955593
3420,46359235.709555924
3738,6791184.0
2,8, 1, 8, 0, 7, 0.00,60.00,Sunday
135,66032185.73006148
3420,66032185.73006148
3738,6791184.0
2,8, 1, 8, 0, 8, 0.00,60.00,Sunday
135,53323580.330645084
3420,53323580.330645084
3738,6791184.0
2,8, 1, 8, 0, 9, 0.00,60.00,Sunday
135,46344166.24829911
3420,46344166.24829911
3738,6791184.0
2,8, 1, 8, 0,10, 0.00,60.00,Sunday
135,46288812.51597283
3420,46288812.51597283
3738,6791184.0
2,8, 1, 8, 0,11, 0.00,60.00,Sunday
135,48625663.1270587
3420,48625663.1270587
3738,6791184.0
2,8, 1, 8, 0,12, 0.00,60.00,Sunday
135,57170152.04207954
3420,57170152.04207954
3738,6791184.0
2,8, 1, 8, 0,13, 0.00,60.00,Sunday
135,64360239.037492946
3420,64360239.037492946
3738,6791184.0
2,8, 1, 8, 0,14, 0.00,60.00,Sunday
135,71304488.13785036
3420,71304488.13785036
3738,6791184.0
2,8, 1, 8, 0,15, 0.00,60.00,Sunday
135,70449819.89317876
3420,70449819.89317876
3738,6791184.0
2,8, 1, 8, 0,16, 0.00,60.00,Sunday
135,72995936.4414063
3420,72995936.4414063
3738,6791184.0
2,8, 1, 8, 0,17, 0.00,60.00,Sunday
135,64004328.12863738
3420,64004328.12863738
3738,6791184.0
2,8, 1, 8, 0,18, 0.00,60.00,Sunday
135,70235748.46414204
3420,70235748.46414204
3738,6791184.0
2,8, 1, 8, 0,19, 0.00,60.00,Sunday
135,57105773.81922845
3420,57105773.81922844
3738,6791184.0
2,8, 1, 8, 0,20, 0.00,60.00,Sunday
135,48904615.70955593
3420,48904615.70955593
3738,6791184.0
2,8, 1, 8, 0,21, 0.00,60.00,Sunday
135,48904615.70955593
3420,48904615.70955593
3738,6791184.0
2,8, 1, 8, 0,22, 0.00,60.00,Sunday
135,48904615.70955593
3420,48904615.70955593
3738,6791184.0
2,8, 1, 8, 0,23, 0.00,60.00,Sunday
135,48904615.70955593
3420,48904615.70955593
3738,6791184.0
2,8, 1, 8, 0,24, 0.00,60.00,Sunday
135,48904615.70955593
3420,48904615.70955593
3738,6791184.0
2,9, 1, 9, 0, 1, 0.00,60.00,Monday
135,57609860.1137362
3420,57609860.1137362
3738,6791184.0
2,9, 1, 9, 0, 2, 0.00,60.00,Monday
135,57609860.1137362
3420,57609860.1137362
3738,6791184.0
2,9, 1, 9, 0, 3, 0.00,60.00,Monday
135,57609860.1137362
3420,57609860.1137362
3738,6791184.0
2,9, 1, 9, 0, 4, 0.00,60.00,Monday
135,57609860.1137362
3420,57609860.1137362
3738,6791184.0
2,9, 1, 9, 0, 5, 0.00,60.00,Monday
135,57609860.1137362
3420,57609860.1137362
3738,6791184.0
2,9, 1, 9, 0, 6, 0.00,60.00,Monday
135,57609860.1137362
3420,57609860.1137362
3738,6791184.0
2,9, 1, 9, 0, 7, 0.00,60.00,Monday
135,104909231.88371333
3420,104909231.88371333
3738,6791184.0
2,9, 1, 9, 0, 8, 0.00,60.00,Monday
135,179865400.4803317
3420,179865400.4803317
3738,75386175.14760394
2,9, 1, 9, 0, 9, 0.00,60.00,Monday
135,304093553.1537046
3420,304093553.1537045
3738,41159682.268518575
2,9, 1, 9, 0,10, 0.00,60.00,Monday
135,270241553.0934485
3420,270241553.0934485
3738,11891235.908834744
2,9, 1, 9, 0,11, 0.00,60.00,Monday
135,263432207.2777511
3420,263432207.27775103
3738,6791184.0
2,9, 1, 9, 0,12, 0.00,60.00,Monday
135,283618528.6039046
3420,283618528.60390455
3738,20903861.108155213
2,9, 1, 9, 0,13, 0.00,60.00,Monday
135,299614544.3058849
3420,299614544.3058849
3738,31355575.98709819
2,9, 1, 9, 0,14, 0.00,60.00,Monday
135,320432719.33730984
3420,320432719.3373097
3738,26210336.3259435
2,9, 1, 9, 0,15, 0.00,60.00,Monday
135,319172680.44220984
3420,319172680.4422098
3738,20131572.88758724
2,9, 1, 9, 0,16, 0.00,60.00,Monday
135,329079533.36358607
3420,329079533.36358607
3738,15659296.69414793
2,9, 1, 9, 0,17, 0.00,60.00,Monday
135,333147942.4189027
3420,333147942.41890264
3738,25336243.12108682
2,9, 1, 9, 0,18, 0.00,60.00,Monday
135,241427099.07493258
3420,241427099.07493255
3738,11089578.756254131
2,9, 1, 9, 0,19, 0.00,60.00,Monday
135,131113761.5359928
3420,131113761.5359928
3738,11003232.96182238
2,9, 1, 9, 0,20, 0.00,60.00,Monday
135,113569604.38930234
3420,113569604.38930234
3738,10918316.87627232
2,9, 1, 9, 0,21, 0.00,60.00,Monday
135,102910895.06207252
3420,102910895.06207252
3738,6791184.0
2,9, 1, 9, 0,22, 0.00,60.00,Monday
135,98267997.61519502
3420,98267997.61519504
3738,6791184.0
2,9, 1, 9, 0,23, 0.00,60.00,Monday
135,77772390.65670998
3420,77772390.65670998
3738,6791184.0
2,9, 1, 9, 0,24, 0.00,60.00,Monday
135,72442274.24247962
3420,72442274.24247962
3738,6791184.0
2,10, 1,10, 0, 1, 0.00,60.00,Tuesday
135,57996196.7332391
3420,57996196.7332391
3738,6791184.0
2,10, 1,10, 0, 2, 0.00,60.00,Tuesday
135,57609860.1137362
3420,57609860.1137362
3738,6791184.0
2,10, 1,10, 0, 3, 0.00,60.00,Tuesday
135,57609860.1137362
3420,57609860.1137362
3738,6791184.0
2,10, 1,10, 0, 4, 0.00,60.00,Tuesday
135,57609860.1137362
3420,57609860.1137362
3738,6791184.0
2,10, 1,10, 0, 5, 0.00,60.00,Tuesday
135,57609860.1137362
3420,57609860.1137362
3738,6791184.0
2,10, 1,10, 0, 6, 0.00,60.00,Tuesday
135,57609860.1137362
3420,57609860.1137362
3738,6791184.0
2,10, 1,10, 0, 7, 0.00,60.00,Tuesday
135,95115437.03555281
3420,95115437.03555281
3738,6791184.0
2,10, 1,10, 0, 8, 0.00,60.00,Tuesday
135,167302098.361325
3420,167302098.361325
3738,85022486.47522572
2,10, 1,10, 0, 9, 0.00,60.00,Tuesday
135,300036307.122011
3420,300036307.12201107
3738,57574429.734780386
2,10, 1,10, 0,10, 0.00,60.00,Tuesday
135,268911097.51803243
3420,268911097.5180324
3738,29188250.89033041
2,10, 1,10, 0,11, 0.00,60.00,Tuesday
135,260743801.8226273
3420,260743801.82262725
3738,22283014.55258073
2,10, 1,10, 0,12, 0.00,60.00,Tuesday
135,268635600.2486399
3420,268635600.2486399
3738,31927922.650759675
2,10, 1,10, 0,13, 0.00,60.00,Tuesday
135,271027528.5487044
3420,271027528.5487044
3738,27359784.901161257
2,10, 1,10, 0,14, 0.00,60.00,Tuesday
135,277561568.636142
3420,277561568.63614196
3738,30433437.0503878
2,10, 1,10, 0,15, 0.00,60.00,Tuesday
135,278894310.5024523
3420,278894310.50245225
3738,16290058.64807377
2,10, 1,10, 0,16, 0.00,60.00,Tuesday
135,289676997.7255447
3420,289676997.72554463
3738,17142080.107066795
2,10, 1,10, 0,17, 0.00,60.00,Tuesday
135,286944259.33062947
3420,286944259.33062947
3738,23784515.180551305
2,10, 1,10, 0,18, 0.00,60.00,Tuesday
135,229290614.21916193
3420,229290614.2191619
3738,15419409.24211035
2,10, 1,10, 0,19, 0.00,60.00,Tuesday
135,130924946.56046796
3420,130924946.56046796
3738,28651874.60224711
2,10, 1,10, 0,20, 0.00,60.00,Tuesday
135,113569604.38930234
3420,113569604.38930234
3738,30278578.701084003
2,10, 1,10, 0,21, 0.00,60.00,Tuesday
135,102910895.06207252
3420,102910895.06207252
3738,41038917.09330627
2,10, 1,10, 0,22, 0.00,60.00,Tuesday
135,98267997.61519502
3420,98267997.61519504
3738,56036266.609082416
2,10, 1,10, 0,23, 0.00,60.00,Tuesday
135,77772390.65670998
3420,77772390.65670998
3738,6791184.0
2,10, 1,10, 0,24, 0.00,60.00,Tuesday
135,72442274.24247962
3420,72442274.24247962
3738,6791184.0
2,11, 1,11, 0, 1, 0.00,60.00,Wednesday
135,57996196.7332391
3420,57996196.7332391
3738,6791184.0
2,11, 1,11, 0, 2, 0.00,60.00,Wednesday
135,57609860.1137362
3420,57609860.1137362
3738,6791184.0
2,11, 1,11, 0, 3, 0.00,60.00,Wednesday
135,57609860.1137362
3420,57609860.1137362
3738,6791184.0
2,11, 1,11, 0, 4, 0.00,60.00,Wednesday
135,57609860.1137362
3420,57609860.1137362
3738,6791184.0
2,11, 1,11, 0, 5, 0.00,60.00,Wednesday
135,57609860.1137362
3420,57609860.1137362
3738,6791184.0
2,11, 1,11, 0, 6, 0.00,60.00,Wednesday
135,57609860.1137362
3420,57609860.1137362
3738,6791184.0
2,11, 1,11, 0, 7, 0.00,60.00,Wednesday
135,94747013.88369074
3420,94747013.88369076
3738,6791184.0
2,11, 1,11, 0, 8, 0.00,60.00,Wednesday
135,166317189.02338266
3420,166317189.02338266
3738,41937906.00849966
2,11, 1,11, 0, 9, 0.00,60.00,Wednesday
135,301695687.61671054
3420,301695687.61671054
3738,30702661.847258747
2,11, 1,11, 0,10, 0.00,60.00,Wednesday
135,270343276.7374866
3420,270343276.7374866
3738,15905800.788569527
2,11, 1,11, 0,11, 0.00,60.00,Wednesday
135,265505446.32205704
3420,265505446.322057
3738,6863122.237364233
2,11, 1,11, 0,12, 0.00,60.00,Wednesday
135,273793078.2805536
3420,273793078.2805536
3738,25582586.16570857
2,11, 1,11, 0,13, 0.00,60.00,Wednesday
135,271858703.9502815
3420,271858703.9502815
3738,31419383.31546462
2,11, 1,11, 0,14, 0.00,60.00,Wednesday
135,275780409.9899527
3420,275780409.9899527
3738,26225924.949603327
2,11, 1,11, 0,15, 0.00,60.00,Wednesday
135,261896517.52933586
3420,261896517.52933583
3738,20146270.046570204
2,11, 1,11, 0,16, 0.00,60.00,Wednesday
135,262582721.2825668
3420,262582721.28256673
3738,15649221.24041405
2,11, 1,11, 0,17, 0.00,60.00,Wednesday
135,279055938.7546792
3420,279055938.7546792
3738,27869153.43999004
2,11, 1,11, 0,18, 0.00,60.00,Wednesday
135,241896965.27743003
3420,241896965.27743003
3738,37344610.675359085
2,11, 1,11, 0,19, 0.00,60.00,Wednesday
135,131524086.38858174
3420,131524086.38858174
3738,52413836.65388847
2,11, 1,11, 0,20, 0.00,60.00,Wednesday
135,113569604.38930234
3420,113569604.38930234
3738,64804563.556887686
2,11, 1,11, 0,21, 0.00,60.00,Wednesday
135,102910895.06207252
3420,102910895.06207252
3738,65996233.533501446
2,11, 1,11, 0,22, 0.00,60.00,Wednesday
135,98267997.61519502
3420,98267997.61519504
3738,78785656.54017115
2,11, 1,11, 0,23, 0.00,60.00,Wednesday
135,77772390.65670998
3420,77772390.65670998
3738,6791184.0
2,11, 1,11, 0,24, 0.00,60.00,Wednesday
135,72442274.24247962
3420,72442274.24247962
3738,6791184.0
2,12, 1,12, 0, 1, 0.00,60.00,Thursday
135,57996196.7332391
3420,57996196.7332391
3738,6791184.0
2,12, 1,12, 0, 2, 0.00,60.00,Thursday
135,57609860.1137362
3420,57609860.1137362
3738,6791184.0
2,12, 1,12, 0, 3, 0.00,60.00,Thursday
135,57609860.1137362
3420,57609860.1137362
3738,6791184.0
2,12, 1,12, 0, 4, 0.00,60.00,Thursday
135,57609860.1137362
3420,57609860.1137362
3738,6791184.0
2,12, 1,12, 0, 5, 0.00,60.00,Thursday
135,57609860.1137362
3420,57609860.1137362
3738,6791184.0
2,12, 1,12, 0, 6, 0.00,60.00,Thursday
135,57609860.1137362
3420,57609860.1137362
3738,6791184.0
2,12, 1,12, 0, 7, 0.00,60.00,Thursday
135,99752976.67928927
3420,99752976.67928925
3738,6791184.0
2,12, 1,12, 0, 8, 0.00,60.00,Thursday
135,173533055.61957008
3420,173533055.61957005
3738,110748806.13379201
2,12, 1,12, 0, 9, 0.00,60.00,Thursday
135,309608317.36059487
3420,309608317.3605948
3738,76858424.25645378
2,12, 1,12, 0,10, 0.00,60.00,Thursday
135,272733115.02384543
3420,272733115.02384543
3738,65015988.47023845
2,12, 1,12, 0,11, 0.00,60.00,Thursday
135,266698041.88730678
3420,266698041.88730675
3738,46951946.76301645
2,12, 1,12, 0,12, 0.00,60.00,Thursday
135,278968276.6693558
3420,278968276.6693558
3738,39316391.801532
2,12, 1,12, 0,13, 0.00,60.00,Thursday
135,291212306.50755787
3420,291212306.5075578
3738,33097372.660188302
2,12, 1,12, 0,14, 0.00,60.00,Thursday
135,289724095.32658195
3420,289724095.32658195
3738,32036824.76934032
2,12, 1,12, 0,15, 0.00,60.00,Thursday
135,273428985.7950868
3420,273428985.79508674
3738,15687841.784345126
2,12, 1,12, 0,16, 0.00,60.00,Thursday
135,273091447.36323625
3420,273091447.36323625
3738,20366314.6153664
2,12, 1,12, 0,17, 0.00,60.00,Thursday
135,291516758.4203478
3420,291516758.4203478
3738,29353382.60828329
2,12, 1,12, 0,18, 0.00,60.00,Thursday
135,252762344.99516743
3420,252762344.99516743
3738,47288975.22473927
2,12, 1,12, 0,19, 0.00,60.00,Thursday
135,131875192.512281
3420,131875192.512281
3738,69962456.25460893
2,12, 1,12, 0,20, 0.00,60.00,Thursday
135,113569604.38930234
3420,113569604.38930234
3738,69680439.84547973
2,12, 1,12, 0,21, 0.00,60.00,Thursday
135,102910895.06207252
3420,102910895.06207252
3738,74679330.65684879
2,12, 1,12, 0,22, 0.00,60.00,Thursday
135,98466049.09352756
3420,98466049.09352757
3738,78661417.38885461
2,12, 1,12, 0,23, 0.00,60.00,Thursday
135,77772390.65670998
3420,77772390.65670998
3738,6791184.0
2,12, 1,12, 0,24, 0.00,60.00,Thursday
135,72442274.24247962
3420,72442274.24247962
3738,6791184.0
2,13, 1,13, 0, 1, 0.00,60.00,Friday
135,57996196.7332391
3420,57996196.7332391
3738,6791184.0
2,13, 1,13, 0, 2, 0.00,60.00,Friday
135,57609860.1137362
3420,57609860.1137362
3738,6791184.0