Program Version,EnergyPlus, Version 9.6.0-f420c06a69, YMD=2022.07.16 15:05
1,5,Environment Title[],Latitude[deg],Longitude[deg],Time Zone[],Elevation[m]
2,8,Day of Simulation[],Month[],Day of Month[],DST Indicator[1=yes 0=no],Hour[],StartMinute[],EndMinute[],DayType
3,5,Cumulative Day of Simulation[],Month[],Day of Month[],DST Indicator[1=yes 0=no],DayType  ! When Daily Meters Requested
4,2,Cumulative Days of Simulation[],Month[]  ! When Monthly Meters Requested
5,1,Cumulative Days of Simulation[] ! When Run Period Meters Requested
6,1,Calendar Year of Simulation[] ! When Annual Meters Requested
135,1,Electricity:Facility [J] !Hourly
3420,1,ElectricityNet:Facility [J] !Hourly
3738,1,NaturalGas:Facility [J] !Hourly
End of Data Dictionary
1,RUNPERIOD 1,  35.04,-106.62,  -7.00,1619.00
2,1, 1, 1, 0, 1, 0.00,60.00,Holiday
135,46359074.93593144
3420,46359074.93593143
3738,6791184.0
2,1, 1, 1, 0, 2, 0.00,60.00,Holiday
135,46359235.70955593
3420,46359235.709555924
3738,6791184.0
2,1, 1, 1, 0, 3, 0.00,60.00,Holiday
135,46359235.70955593
3420,46359235.709555924
3738,6791184.0
2,1, 1, 1, 0, 4, 0.00,60.00,Holiday
135,46359235.70955593
3420,46359235.709555924
3738,6791184.0
2,1, 1, 1, 0, 5, 0.00,60.00,Holiday
135,46359235.70955593
3420,46359235.709555924
3738,6791184.0
2,1, 1, 1, 0, 6, 0.00,60.00,Holiday
135,46359235.70955593
3420,46359235.709555924
3738,6791184.0
2,1, 1, 1, 0, 7, 0.00,60.00,Holiday
135,66032185.73006148
3420,66032185.73006148
3738,6791184.0
2,1, 1, 1, 0, 8, 0.00,60.00,Holiday
135,50074623.774579875
3420,50074623.774579875
3738,6791184.0
2,1, 1, 1, 0, 9, 0.00,60.00,Holiday
135,46351708.9331394
3420,46351708.9331394
3738,6791184.0
2,1, 1, 1, 0,10, 0.00,60.00,Holiday
135,46288813.17904917
3420,46288813.179049164
3738,6791184.0
2,1, 1, 1, 0,11, 0.00,60.00,Holiday
135,51149014.50787013
3420,51149014.50787013
3738,6791184.0
2,1, 1, 1, 0,12, 0.00,60.00,Holiday
135,53542591.30173427
3420,53542591.30173427
3738,6791184.0
2,1, 1, 1, 0,13, 0.00,60.00,Holiday
135,54827857.64153222
3420,54827857.64153222
3738,6791184.0
2,1, 1, 1, 0,14, 0.00,60.00,Holiday
135,61196507.52122828
3420,61196507.5212283
3738,6791184.0
2,1, 1, 1, 0,15, 0.00,60.00,Holiday
135,67239153.60782859
3420,67239153.60782859
3738,6791184.0
2,1, 1, 1, 0,16, 0.00,60.00,Holiday
135,64721412.807741076
3420,64721412.80774109
3738,6791184.0
2,1, 1, 1, 0,17, 0.00,60.00,Holiday
135,55473596.479658276
3420,55473596.479658276
3738,6791184.0
2,1, 1, 1, 0,18, 0.00,60.00,Holiday
135,66905826.86107348
3420,66905826.86107348
3738,6791184.0
2,1, 1, 1, 0,19, 0.00,60.00,Holiday
135,57105773.81922845
3420,57105773.81922844
3738,6791184.0
2,1, 1, 1, 0,20, 0.00,60.00,Holiday
135,48904615.70955593
3420,48904615.70955593
3738,6791184.0
2,1, 1, 1, 0,21, 0.00,60.00,Holiday
135,48904615.70955593
3420,48904615.70955593
3738,6791184.0
2,1, 1, 1, 0,22, 0.00,60.00,Holiday
135,48904615.70955593
3420,48904615.70955593
3738,6791184.0
2,1, 1, 1, 0,23, 0.00,60.00,Holiday
135,48904615.70955593
3420,48904615.70955593
3738,6791184.0
2,1, 1, 1, 0,24, 0.00,60.00,Holiday
135,48904615.70955593
3420,48904615.70955593
3738,6791184.0
2,2, 1, 2, 0, 1, 0.00,60.00,Monday
135,57609860.1137362
3420,57609860.1137362
3738,6791184.0
2,2, 1, 2, 0, 2, 0.00,60.00,Monday
135,57609860.1137362
3420,57609860.1137362
3738,6791184.0
2,2, 1, 2, 0, 3, 0.00,60.00,Monday
135,57609860.1137362
3420,57609860.1137362
3738,6791184.0
2,2, 1, 2, 0, 4, 0.00,60.00,Monday
135,57609860.1137362
3420,57609860.1137362
3738,6791184.0
2,2, 1, 2, 0, 5, 0.00,60.00,Monday
135,57609860.1137362
3420,57609860.1137362
3738,6791184.0
2,2, 1, 2, 0, 6, 0.00,60.00,Monday
135,57609860.1137362
3420,57609860.1137362
3738,6791184.0
2,2, 1, 2, 0, 7, 0.00,60.00,Monday
135,127996825.63454857
3420,127996825.63454857
3738,6791184.0
2,2, 1, 2, 0, 8, 0.00,60.00,Monday
135,215776918.25572556
3420,215776918.25572553
3738,138020718.205081
2,2, 1, 2, 0, 9, 0.00,60.00,Monday
135,308779831.98790205
3420,308779831.98790205
3738,82873177.66038454
2,2, 1, 2, 0,10, 0.00,60.00,Monday
135,272391633.6877966
3420,272391633.68779653
3738,53951717.89646106
2,2, 1, 2, 0,11, 0.00,60.00,Monday
135,270626858.73905873
3420,270626858.73905873
3738,16290746.029742379
2,2, 1, 2, 0,12, 0.00,60.00,Monday
135,289695713.59204376
3420,289695713.59204376
3738,20876788.629584327
2,2, 1, 2, 0,13, 0.00,60.00,Monday
135,291132855.59700644
3420,291132855.59700644
3738,31334466.06780298
2,2, 1, 2, 0,14, 0.00,60.00,Monday
135,308021486.08789706
3420,308021486.08789706
3738,26165957.600102253
2,2, 1, 2, 0,15, 0.00,60.00,Monday
135,301222934.61526537
3420,301222934.6152653
3738,16608219.527592774
2,2, 1, 2, 0,16, 0.00,60.00,Monday
135,306260640.67507416
3420,306260640.67507416
3738,19132384.55082509
2,2, 1, 2, 0,17, 0.00,60.00,Monday
135,303775473.3403636
3420,303775473.34036356
3738,20696667.15605069
2,2, 1, 2, 0,18, 0.00,60.00,Monday
135,238144633.47194412
3420,238144633.4719441
3738,19995254.898005724
2,2, 1, 2, 0,19, 0.00,60.00,Monday
135,130915817.59055667
3420,130915817.59055667
3738,46965666.73843971
2,2, 1, 2, 0,20, 0.00,60.00,Monday
135,114591120.3768551
3420,114591120.3768551
3738,60485811.603654675
2,2, 1, 2, 0,21, 0.00,60.00,Monday
135,105863576.09982648
3420,105863576.09982648
3738,74237317.72791636
2,2, 1, 2, 0,22, 0.00,60.00,Monday
135,103011114.57527736
3420,103011114.57527736
3738,75836107.61545125
2,2, 1, 2, 0,23, 0.00,60.00,Monday
135,77772390.65670998
3420,77772390.65670998
3738,6791184.0
2,2, 1, 2, 0,24, 0.00,60.00,Monday
135,72442274.24247962
3420,72442274.24247962
3738,6791184.0
2,3, 1, 3, 0, 1, 0.00,60.00,Tuesday
135,57996196.7332391
3420,57996196.7332391
3738,6791184.0
2,3, 1, 3, 0, 2, 0.00,60.00,Tuesday
135,57609860.1137362
3420,57609860.1137362
3738,6791184.0
2,3, 1, 3, 0, 3, 0.00,60.00,Tuesday
135,57609860.1137362
3420,57609860.1137362
3738,6791184.0
2,3, 1, 3, 0, 4, 0.00,60.00,Tuesday
135,57609860.1137362
3420,57609860.1137362
3738,6791184.0
2,3, 1, 3, 0, 5, 0.00,60.00,Tuesday
135,57609860.1137362
3420,57609860.1137362
3738,6791184.0
2,3, 1, 3, 0, 6, 0.00,60.00,Tuesday
135,57609860.1137362
3420,57609860.1137362
3738,6791184.0
2,3, 1, 3, 0, 7, 0.00,60.00,Tuesday
135,106152657.22368963
3420,106152657.22368963
3738,6791184.0
2,3, 1, 3, 0, 8, 0.00,60.00,Tuesday
135,183163489.53401428
3420,183163489.5340143
3738,111892574.47589736
2,3, 1, 3, 0, 9, 0.00,60.00,Tuesday
135,312846467.922224
3420,312846467.9222239
3738,61823980.86062136
2,3, 1, 3, 0,10, 0.00,60.00,Tuesday
135,280699501.82336503
3420,280699501.823365
3738,20771365.35483097
2,3, 1, 3, 0,11, 0.00,60.00,Tuesday
135,279027905.3609036
3420,279027905.36090356
3738,8741157.10151956
2,3, 1, 3, 0,12, 0.00,60.00,Tuesday
135,291608775.8767624
3420,291608775.8767624
3738,23543898.28150867
2,3, 1, 3, 0,13, 0.00,60.00,Tuesday
135,298159831.07310724
3420,298159831.07310724
3738,31314679.257927667
2,3, 1, 3, 0,14, 0.00,60.00,Tuesday
135,319563391.0021118
3420,319563391.0021118
3738,26173986.299606875
2,3, 1, 3, 0,15, 0.00,60.00,Tuesday
135,314106448.48218405
3420,314106448.482184
3738,20136329.216489274
2,3, 1, 3, 0,16, 0.00,60.00,Tuesday
135,318849696.3722961
3420,318849696.37229604
3738,15643333.431131158
2,3, 1, 3, 0,17, 0.00,60.00,Tuesday
135,320052522.8001088
3420,320052522.8001088
3738,20680915.011143968
2,3, 1, 3, 0,18, 0.00,60.00,Tuesday
135,244393850.84763265
3420,244393850.84763262
3738,15493838.81398277
2,3, 1, 3, 0,19, 0.00,60.00,Tuesday
135,132293509.38037744
3420,132293509.38037744
3738,12950008.86970869
2,3, 1, 3, 0,20, 0.00,60.00,Tuesday
135,113569604.38930234
3420,113569604.38930234
3738,22293792.524034746
2,3, 1, 3, 0,21, 0.00,60.00,Tuesday
135,102910895.06207252
3420,102910895.06207252
3738,28685256.09971969
2,3, 1, 3, 0,22, 0.00,60.00,Tuesday
135,98267997.61519502
3420,98267997.61519504
3738,57854255.520741105
2,3, 1, 3, 0,23, 0.00,60.00,Tuesday
135,77772390.65670998
3420,77772390.65670998
3738,6791184.0
2,3, 1, 3, 0,24, 0.00,60.00,Tuesday
135,72442274.24247962
3420,72442274.24247962
3738,6791184.0
2,4, 1, 4, 0, 1, 0.00,60.00,Wednesday
135,57996196.7332391
3420,57996196.7332391
3738,6791184.0
2,4, 1, 4, 0, 2, 0.00,60.00,Wednesday
135,57609860.1137362
3420,57609860.1137362
3738,6791184.0
2,4, 1, 4, 0, 3, 0.00,60.00,Wednesday
135,57609860.1137362
3420,57609860.1137362
3738,6791184.0
2,4, 1, 4, 0, 4, 0.00,60.00,Wednesday
135,57609860.1137362
3420,57609860.1137362
3738,6791184.0
2,4, 1, 4, 0, 5, 0.00,60.00,Wednesday
135,57609860.1137362
3420,57609860.1137362
3738,6791184.0
2,4, 1, 4, 0, 6, 0.00,60.00,Wednesday
135,57609860.1137362
3420,57609860.1137362
3738,6791184.0
2,4, 1, 4, 0, 7, 0.00,60.00,Wednesday
135,96608915.91809314
3420,96608915.91809314
3738,6791184.0
2,4, 1, 4, 0, 8, 0.00,60.00,Wednesday
135,174678037.6365511
3420,174678037.63655114
3738,99774910.51860352
2,4, 1, 4, 0, 9, 0.00,60.00,Wednesday
135,300594899.78087115
3420,300594899.78087115
3738,57643922.6077898
2,4, 1, 4, 0,10, 0.00,60.00,Wednesday
135,266130163.0435151
3420,266130163.0435151
3738,27728511.086852238
2,4, 1, 4, 0,11, 0.00,60.00,Wednesday
135,258942368.30949143
3420,258942368.3094914
3738,14158857.745082775
2,4, 1, 4, 0,12, 0.00,60.00,Wednesday
135,269947075.4886608
3420,269947075.4886608
3738,20883169.220156364
2,4, 1, 4, 0,13, 0.00,60.00,Wednesday
135,287104681.9486606
3420,287104681.9486606
3738,31312906.791740734
2,4, 1, 4, 0,14, 0.00,60.00,Wednesday
135,303599056.98260194
3420,303599056.9826019
3738,26184929.64555156
2,4, 1, 4, 0,15, 0.00,60.00,Wednesday
135,291616233.33313125
3420,291616233.3331312
3738,20137190.886446368
2,4, 1, 4, 0,16, 0.00,60.00,Wednesday
135,287409821.14714676
3420,287409821.14714676
3738,15652327.572158542
2,4, 1, 4, 0,17, 0.00,60.00,Wednesday
135,295668588.7364664
3420,295668588.7364664
3738,25317628.39491654
2,4, 1, 4, 0,18, 0.00,60.00,Wednesday
135,229927549.98290157
3420,229927549.98290157
3738,11107258.050512891
2,4, 1, 4, 0,19, 0.00,60.00,Wednesday
135,130697416.88237858
3420,130697416.88237858
3738,11020167.093850372
2,4, 1, 4, 0,20, 0.00,60.00,Wednesday
135,113569604.38930234
3420,113569604.38930234
3738,10927208.419863326
2,4, 1, 4, 0,21, 0.00,60.00,Wednesday
135,102910895.06207252
3420,102910895.06207252
3738,12783266.61769088
2,4, 1, 4, 0,22, 0.00,60.00,Wednesday
135,98267997.61519502
3420,98267997.61519504
3738,19831828.543207575
2,4, 1, 4, 0,23, 0.00,60.00,Wednesday
135,77772390.65670998
3420,77772390.65670998
3738,6791184.0
2,4, 1, 4, 0,24, 0.00,60.00,Wednesday
135,72442274.24247962
3420,72442274.24247962
3738,6791184.0
2,5, 1, 5, 0, 1, 0.00,60.00,Thursday
135,57996196.7332391
3420,57996196.7332391
3738,6791184.0
2,5, 1, 5, 0, 2, 0.00,60.00,Thursday
135,57609860.1137362
3420,57609860.1137362
3738,6791184.0
2,5, 1, 5, 0, 3, 0.00,60.00,Thursday
135,57609860.1137362
3420,57609860.1137362
3738,6791184.0
2,5, 1, 5, 0, 4, 0.00,60.00,Thursday
135,57609860.1137362
3420,57609860.1137362
3738,6791184.0
2,5, 1, 5, 0, 5, 0.00,60.00,Thursday
135,57609860.1137362
3420,57609860.1137362
3738,6791184.0
2,5, 1, 5, 0, 6, 0.00,60.00,Thursday
135,57609860.1137362
3420,57609860.1137362
3738,6791184.0
2,5, 1, 5, 0, 7, 0.00,60.00,Thursday
135,94290155.51494788
3420,94290155.51494788
3738,6791184.0
2,5, 1, 5, 0, 8, 0.00,60.00,Thursday
135,160906103.05782303
3420,160906103.05782303
3738,52643211.90244311
2,5, 1, 5, 0, 9, 0.00,60.00,Thursday
135,300754496.5750528
3420,300754496.5750528
3738,24640127.65253337
2,5, 1, 5, 0,10, 0.00,60.00,Thursday
135,272433036.0808575
3420,272433036.08085746
3738,6791184.0
2,5, 1, 5, 0,11, 0.00,60.00,Thursday
135,289987354.0105132
3420,289987354.01051307
3738,11333004.820250537
2,5, 1, 5, 0,12, 0.00,60.00,Thursday
135,311852823.0034389
3420,311852823.0034389
3738,20890348.46554243
2,5, 1, 5, 0,13, 0.00,60.00,Thursday
135,319686473.83917457
3420,319686473.8391745
3738,31321211.1440054
2,5, 1, 5, 0,14, 0.00,60.00,Thursday
135,343172494.3928274
3420,343172494.39282745
3738,26187927.65190625
2,5, 1, 5, 0,15, 0.00,60.00,Thursday
135,338374240.4091535
3420,338374240.40915346
3738,20205870.29089409
2,5, 1, 5, 0,16, 0.00,60.00,Thursday
135,343024320.5968821
3420,343024320.59688205
3738,15642618.654790042
2,5, 1, 5, 0,17, 0.00,60.00,Thursday
135,341911113.6448729
3420,341911113.6448729
3738,25321746.043285117
2,5, 1, 5, 0,18, 0.00,60.00,Thursday
135,254684531.43500316
3420,254684531.43500316
3738,11099671.397401005
2,5, 1, 5, 0,19, 0.00,60.00,Thursday
135,137021792.64863464
3420,137021792.64863464
3738,11020550.145889495
2,5, 1, 5, 0,20, 0.00,60.00,Thursday
135,113569604.38930234
3420,113569604.38930234
3738,10932982.976805013
2,5, 1, 5, 0,21, 0.00,60.00,Thursday
135,102910895.06207252
3420,102910895.06207252
3738,6791184.0
2,5, 1, 5, 0,22, 0.00,60.00,Thursday
135,98267997.61519502
3420,98267997.61519504
3738,9399894.739034165
2,5, 1, 5, 0,23, 0.00,60.00,Thursday
135,77772390.65670998
3420,77772390.65670998
3738,6791184.0
2,5, 1, 5, 0,24, 0.00,60.00,Thursday
135,72442274.24247962
3420,72442274.24247962
3738,6791184.0
2,6, 1, 6, 0, 1, 0.00,60.00,Friday
135,57996196.7332391
3420,57996196.7332391
3738,6791184.0
2,6, 1, 6, 0, 2, 0.00,60.00,Friday
135,57609860.1137362
3420,57609860.1137362
3738,6791184.0
2,6, 1, 6, 0, 3, 0.00,60.00,Friday
135,57609860.1137362
3420,57609860.1137362
3738,6791184.0
2,6, 1, 6, 0, 4, 0.00,60.00,Friday
135,57609860.1137362
3420,57609860.1137362
3738,6791184.0
2,6, 1, 6, 0, 5, 0.00,60.00,Friday
135,57609860.1137362
3420,57609860.1137362
3738,6791184.0
2,6, 1, 6, 0, 6, 0.00,60.00,Friday
135,57609860.1137362
3420,57609860.1137362
3738,6791184.0
2,6, 1, 6, 0, 7, 0.00,60.00,Friday
135,94290155.51494788
3420,94290155.51494788
3738,6791184.0
2,6, 1, 6, 0, 8, 0.00,60.00,Friday
135,168816966.61895323
3420,168816966.61895323
3738,60268428.02344218
2,6, 1, 6, 0, 9, 0.00,60.00,Friday
135,301776433.9570152
3420,301776433.95701516
3738,50419788.53520889
2,6, 1, 6, 0,10, 0.00,60.00,Friday
135,267270809.1681909
3420,267270809.16819084
3738,42418695.21470608
2,6, 1, 6, 0,11, 0.00,60.00,Friday
135,260323612.11041927
3420,260323612.11041924
3738,30753340.532291993
2,6, 1, 6, 0,12, 0.00,60.00,Friday
135,273174632.81271905
3420,273174632.812719
3738,24667534.670827582
2,6, 1, 6, 0,13, 0.00,60.00,Friday
135,275622745.67966247
3420,275622745.6796624
3738,28884342.870416082
2,6, 1, 6, 0,14, 0.00,60.00,Friday
135,300205955.3905183
3420,300205955.3905183
3738,26581503.758094933
2,6, 1, 6, 0,15, 0.00,60.00,Friday
135,290729367.8156354
3420,290729367.8156353
3738,19841599.94303538
2,6, 1, 6, 0,16, 0.00,60.00,Friday
135,284294118.70770633
3420,284294118.70770633
3738,15651900.44369964
2,6, 1, 6, 0,17, 0.00,60.00,Friday
135,288663931.9415487
3420,288663931.94154865
3738,25323857.274596557
2,6, 1, 6, 0,18, 0.00,60.00,Friday
135,234388544.97946966
3420,234388544.9794696
3738,18962635.7212017
2,6, 1, 6, 0,19, 0.00,60.00,Friday
135,131129150.93627991
3420,131129150.93627992
3738,36206538.16492713
2,6, 1, 6, 0,20, 0.00,60.00,Friday
135,113618892.58412749
3420,113618892.58412749
3738,36281564.831381015
2,6, 1, 6, 0,21, 0.00,60.00,Friday
135,102910895.06207252
3420,102910895.06207252
3738,55416335.34714487
2,6, 1, 6, 0,22, 0.00,60.00,Friday
135,98267997.61519502
3420,98267997.61519504
3738,56475797.53867856
2,6, 1, 6, 0,23, 0.00,60.00,Friday
135,77772390.65670998
3420,77772390.65670998
3738,6791184.0
2,6, 1, 6, 0,24, 0.00,60.00,Friday
135,72442274.24247962
3420,72442274.24247962
3738,6791184.0
2,7, 1, 7, 0, 1, 0.00,60.00,Saturday
135,46745513.81922844
3420,46745513.81922843
3738,6791184.0
2,7, 1, 7, 0, 2, 0.00,60.00,Saturday
135,46359235.70955593
3420,46359235.709555924
3738,6791184.0
2,7, 1, 7, 0, 3, 0.00,60.00,Saturday
135,46359235.70955593
3420,46359235.709555924
3738,6791184.0
2,7, 1, 7, 0, 4, 0.00,60.00,Saturday
135,46359235.70955593
3420,46359235.709555924
3738,6791184.0
2,7, 1, 7, 0, 5, 0.00,60.00,Saturday
135,46359235.70955593
3420,46359235.709555924
3738,6791184.0
2,7, 1, 7, 0, 6, 0.00,60.00,Saturday
135,46359235.70955593
3420,46359235.709555924
3738,6791184.0
2,7, 1, 7, 0, 7, 0.00,60.00,Saturday
135,99326892.87180966
3420,99326892.87180966
3738,6791184.0
2,7, 1, 7, 0, 8, 0.00,60.00,Saturday
135,118986064.4962781
3420,118986064.4962781
3738,100691863.39913535
2,7, 1, 7, 0, 9, 0.00,60.00,Saturday
135,127442585.62539534
3420,127442585.62539533
3738,84148430.92423509
2,7, 1, 7, 0,10, 0.00,60.00,Saturday
135,132151441.62583199
3420,132151441.62583199
3738,68590352.24931547
2,7, 1, 7, 0,11, 0.00,60.00,Saturday
135,127491095.1252825
3420,127491095.12528248
3738,41392903.241338365
2,7, 1, 7, 0,12, 0.00,60.00,Saturday
135,137770067.45434695
3420,137770067.45434695
3738,12053293.533005718
2,7, 1, 7, 0,13, 0.00,60.00,Saturday
135,97015776.95081119
3420,97015776.95081119
3738,6791184.0
2,7, 1, 7, 0,14, 0.00,60.00,Saturday
135,86673249.80967933
3420,86673249.80967933
3738,6791184.0
2,7, 1, 7, 0,15, 0.00,60.00,Saturday
135,80779884.0829043
3420,80779884.0829043
3738,6791184.0
2,7, 1, 7, 0,16, 0.00,60.00,Saturday
135,76233398.28453368
3420,76233398.28453368
3738,10271492.31774765
2,7, 1, 7, 0,17, 0.00,60.00,Saturday
135,78316963.22306694
3420,78316963.22306694
3738,17418714.467944656
2,7, 1, 7, 0,18, 0.00,60.00,Saturday
135,83077160.33306564
3420,83077160.33306564
3738,34471898.9113483
2,7, 1, 7, 0,19, 0.00,60.00,Saturday
135,66276703.53612528
3420,66276703.53612528
3738,6791184.0
2,7, 1, 7, 0,20, 0.00,60.00,Saturday
135,49290893.81922844
3420,49290893.81922844
3738,6791184.0
2,7, 1, 7, 0,21, 0.00,60.00,Saturday
135,48904615.70955593
3420,48904615.70955593
3738,6791184.0
2,7, 1, 7, 0,22, 0.00,60.00,Saturday
135,48904615.70955593
3420,48904615.70955593
3738,6791184.0
2,7, 1, 7, 0,23, 0.00,60.00,Saturday
135,48904615.70955593
3420,48904615.70955593
3738,6791184.0
2,7, 1, 7, 0,24, 0.00,60.00,Saturday
135,48904615.70955593
3420,48904615.70955593
3738,6791184.0
2,8, 1, 8, 0, 1, 0.00,60.00,Sunday
135,46359235.70955593
3420,46359235.709555924
3738,6791184.0
2,8, 1, 8, 0, 2, 0.00,60.00,Sunday
135,46359235.70955593
3420,46359235.709555924
3738,6791184.0
2,8, 1, 8, 0, 3, 0.00,60.00,Sunday
135,46359235.70955593
3420,46359235.709555924
3738,6791184.0
2,8, 1, 8, 0, 4, 0.00,60.00,Sunday
135,46359235.70955593
3420,46359235.709555924
3738,6791184.0
2,8, 1, 8, 0, 5, 0.00,60.00,Sunday
135,46359235.70955593
3420,46359235.709555924
3738,6791184.0
2,8, 1, 8, 0, 6, 0.00,60.00,Sunday
135,46359235.70955593
3420,46359235.709555924
3738,6791184.0
2,8, 1, 8, 0, 7, 0.00,60.00,Sunday
135,66032185.73006148
3420,66032185.73006148
3738,6791184.0
2,8, 1, 8, 0, 8, 0.00,60.00,Sunday
135,53323580.330645084
3420,53323580.330645084
3738,6791184.0
2,8, 1, 8, 0, 9, 0.00,60.00,Sunday
135,46344166.24829911
3420,46344166.24829911
3738,6791184.0
2,8, 1, 8, 0,10, 0.00,60.00,Sunday
135,46288812.51597283
3420,46288812.51597283
3738,6791184.0
2,8, 1, 8, 0,11, 0.00,60.00,Sunday
135,47492861.43060556
3420,47492861.43060555
3738,6791184.0
2,8, 1, 8, 0,12, 0.00,60.00,Sunday
135,53177302.37492733
3420,53177302.37492733
3738,6791184.0
2,8, 1, 8, 0,13, 0.00,60.00,Sunday
135,53671293.861468114
3420,53671293.86146812
3738,6791184.0
2,8, 1, 8, 0,14, 0.00,60.00,Sunday
135,54437382.03694149
3420,54437382.0369415
3738,6791184.0
2,8, 1, 8, 0,15, 0.00,60.00,Sunday
135,53740754.79356535
3420,53740754.79356535
3738,6791184.0
2,8, 1, 8, 0,16, 0.00,60.00,Sunday
135,55307906.10391918
3420,55307906.10391918
3738,6791184.0
2,8, 1, 8, 0,17, 0.00,60.00,Sunday
135,52796128.58919657
3420,52796128.58919657
3738,6791184.0
2,8, 1, 8, 0,18, 0.00,60.00,Sunday
135,66276671.30593526
3420,66276671.30593526
3738,6791184.0
2,8, 1, 8, 0,19, 0.00,60.00,Sunday
135,57105773.81922845
3420,57105773.81922844
3738,6791184.0
2,8, 1, 8, 0,20, 0.00,60.00,Sunday
135,48904615.70955593
3420,48904615.70955593
3738,6791184.0
2,8, 1, 8, 0,21, 0.00,60.00,Sunday
135,48904615.70955593
3420,48904615.70955593
3738,6791184.0
2,8, 1, 8, 0,22, 0.00,60.00,Sunday
135,48904615.70955593
3420,48904615.70955593
3738,6791184.0
2,8, 1, 8, 0,23, 0.00,60.00,Sunday
135,48904615.70955593
3420,48904615.70955593
3738,6791184.0
2,8, 1, 8, 0,24, 0.00,60.00,Sunday
135,48904615.70955593
3420,48904615.70955593
3738,6791184.0
2,9, 1, 9, 0, 1, 0.00,60.00,Monday
135,57609860.1137362
3420,57609860.1137362
3738,6791184.0
2,9, 1, 9, 0, 2, 0.00,60.00,Monday
135,57609860.1137362
3420,57609860.1137362
3738,6791184.0
2,9, 1, 9, 0, 3, 0.00,60.00,Monday
135,57609860.1137362
3420,57609860.1137362
3738,6791184.0
2,9, 1, 9, 0, 4, 0.00,60.00,Monday
135,57609860.1137362
3420,57609860.1137362
3738,6791184.0
2,9, 1, 9, 0, 5, 0.00,60.00,Monday
135,57609860.1137362
3420,57609860.1137362
3738,6791184.0
2,9, 1, 9, 0, 6, 0.00,60.00,Monday
135,57609860.1137362
3420,57609860.1137362
3738,6791184.0
2,9, 1, 9, 0, 7, 0.00,60.00,Monday
135,119038067.38653198
3420,119038067.38653198
3738,6791184.0
2,9, 1, 9, 0, 8, 0.00,60.00,Monday
135,203170701.43806526
3420,203170701.43806523
3738,128002712.17592014
2,9, 1, 9, 0, 9, 0.00,60.00,Monday
135,314896021.8523102
3420,314896021.8523101
3738,77002295.61592385
2,9, 1, 9, 0,10, 0.00,60.00,Monday
135,277053771.19044995
3420,277053771.19044983
3738,46579242.85461423
2,9, 1, 9, 0,11, 0.00,60.00,Monday
135,274993862.6078422
3420,274993862.60784215
3738,13640994.189898398
2,9, 1, 9, 0,12, 0.00,60.00,Monday
135,293463931.0748969
3420,293463931.0748969
3738,20903864.894890532
2,9, 1, 9, 0,13, 0.00,60.00,Monday
135,294349232.0310085
3420,294349232.0310085
3738,31355575.143645458
2,9, 1, 9, 0,14, 0.00,60.00,Monday
135,312202135.0058527
3420,312202135.0058527
3738,26214340.706127446
2,9, 1, 9, 0,15, 0.00,60.00,Monday
135,307998319.39869124
3420,307998319.3986912
3738,20131552.822343703
2,9, 1, 9, 0,16, 0.00,60.00,Monday
135,317713416.4741855
3420,317713416.4741855
3738,15659367.578412527
2,9, 1, 9, 0,17, 0.00,60.00,Monday
135,328104557.1105467
3420,328104557.1105467
3738,25336260.336256016
2,9, 1, 9, 0,18, 0.00,60.00,Monday
135,244443494.47339928
3420,244443494.47339928
3738,11204900.315240255
2,9, 1, 9, 0,19, 0.00,60.00,Monday
135,132070433.92420757
3420,132070433.92420757
3738,25100518.386917517
2,9, 1, 9, 0,20, 0.00,60.00,Monday
135,113569604.38930234
3420,113569604.38930234
3738,31806218.682424866
2,9, 1, 9, 0,21, 0.00,60.00,Monday
135,102954790.35368642
3420,102954790.35368642
3738,22051510.665784243
2,9, 1, 9, 0,22, 0.00,60.00,Monday
135,99145583.78987053
3420,99145583.78987053
3738,28764380.746931355
2,9, 1, 9, 0,23, 0.00,60.00,Monday
135,77772390.65670998
3420,77772390.65670998
3738,6791184.0
2,9, 1, 9, 0,24, 0.00,60.00,Monday
135,72442274.24247962
3420,72442274.24247962
3738,6791184.0
2,10, 1,10, 0, 1, 0.00,60.00,Tuesday
135,57996196.7332391
3420,57996196.7332391
3738,6791184.0
2,10, 1,10, 0, 2, 0.00,60.00,Tuesday
135,57609860.1137362
3420,57609860.1137362
3738,6791184.0
2,10, 1,10, 0, 3, 0.00,60.00,Tuesday
135,57609860.1137362
3420,57609860.1137362
3738,6791184.0
2,10, 1,10, 0, 4, 0.00,60.00,Tuesday
135,57609860.1137362
3420,57609860.1137362
3738,6791184.0
2,10, 1,10, 0, 5, 0.00,60.00,Tuesday
135,57609860.1137362
3420,57609860.1137362
3738,6791184.0
2,10, 1,10, 0, 6, 0.00,60.00,Tuesday
135,57609860.1137362
3420,57609860.1137362
3738,6791184.0
2,10, 1,10, 0, 7, 0.00,60.00,Tuesday
135,108180476.55137676
3420,108180476.55137677
3738,6791184.0
2,10, 1,10, 0, 8, 0.00,60.00,Tuesday
135,186235181.24882218
3420,186235181.2488222
3738,139179896.8620262
2,10, 1,10, 0, 9, 0.00,60.00,Tuesday
135,309180177.74166507
3420,309180177.74166507
3738,90551918.75014648
2,10, 1,10, 0,10, 0.00,60.00,Tuesday
135,271601724.94783944
3420,271601724.94783944
3738,68618773.0812532
2,10, 1,10, 0,11, 0.00,60.00,Tuesday
135,264133563.54162633
3420,264133563.54162627
3738,58298036.01164844
2,10, 1,10, 0,12, 0.00,60.00,Tuesday
135,273859048.39275074
3420,273859048.39275074
3738,68747481.86815852
2,10, 1,10, 0,13, 0.00,60.00,Tuesday
135,289666157.7044033
3420,289666157.7044033
3738,50337935.71644475
2,10, 1,10, 0,14, 0.00,60.00,Tuesday
135,290794054.63385695
3420,290794054.633857
3738,32475788.317385472
2,10, 1,10, 0,15, 0.00,60.00,Tuesday
135,282974283.31717634
3420,282974283.3171763
3738,16250482.385356877
2,10, 1,10, 0,16, 0.00,60.00,Tuesday
135,284706792.3595475
3420,284706792.3595475
3738,17249014.10795194
2,10, 1,10, 0,17, 0.00,60.00,Tuesday
135,296745100.8296106
3420,296745100.8296106
3738,23673565.18280926
2,10, 1,10, 0,18, 0.00,60.00,Tuesday
135,250489453.24360007
3420,250489453.24360007
3738,33451773.906280424
2,10, 1,10, 0,19, 0.00,60.00,Tuesday
135,131062180.33834916
3420,131062180.33834916
3738,69922227.48206104
2,10, 1,10, 0,20, 0.00,60.00,Tuesday
135,113569604.38930234
3420,113569604.38930234
3738,74553637.93123235
2,10, 1,10, 0,21, 0.00,60.00,Tuesday
135,103395760.92761084
3420,103395760.92761087
3738,84271494.2078151
2,10, 1,10, 0,22, 0.00,60.00,Tuesday
135,100907515.97841153
3420,100907515.97841154
3738,97507504.60512027
2,10, 1,10, 0,23, 0.00,60.00,Tuesday
135,77772390.65670998
3420,77772390.65670998
3738,6791184.0
2,10, 1,10, 0,24, 0.00,60.00,Tuesday
135,72442274.24247962
3420,72442274.24247962
3738,6791184.0
2,11, 1,11, 0, 1, 0.00,60.00,Wednesday
135,57996196.7332391
3420,57996196.7332391
3738,6791184.0
2,11, 1,11, 0, 2, 0.00,60.00,Wednesday
135,57609860.1137362
3420,57609860.1137362
3738,6791184.0
2,11, 1,11, 0, 3, 0.00,60.00,Wednesday
135,57609860.1137362
3420,57609860.1137362
3738,6791184.0
2,11, 1,11, 0, 4, 0.00,60.00,Wednesday
135,57609860.1137362
3420,57609860.1137362
3738,6791184.0
2,11, 1,11, 0, 5, 0.00,60.00,Wednesday
135,57609860.1137362
3420,57609860.1137362
3738,6791184.0
2,11, 1,11, 0, 6, 0.00,60.00,Wednesday
135,57609860.1137362
3420,57609860.1137362
3738,6791184.0
2,11, 1,11, 0, 7, 0.00,60.00,Wednesday
135,97500234.56098789
3420,97500234.56098789
3738,6791184.0
2,11, 1,11, 0, 8, 0.00,60.00,Wednesday
135,166114296.28129768
3420,166114296.28129768
3738,16101506.118410025
2,11, 1,11, 0, 9, 0.00,60.00,Wednesday
135,299054384.25832576
3420,299054384.2583257
3738,7417941.084924569
2,11, 1,11, 0,10, 0.00,60.00,Wednesday
135,268091256.02483177
3420,268091256.0248317
3738,6791184.0
2,11, 1,11, 0,11, 0.00,60.00,Wednesday
135,282551345.06416297
3420,282551345.06416297
3738,6791184.0
2,11, 1,11, 0,12, 0.00,60.00,Wednesday
135,300813643.1581295
3420,300813643.1581295
3738,25582548.25794156
2,11, 1,11, 0,13, 0.00,60.00,Wednesday
135,295486930.0378796
3420,295486930.0378796
3738,31380659.71783545
2,11, 1,11, 0,14, 0.00,60.00,Wednesday
135,304422650.8453548
3420,304422650.8453548
3738,26217964.270030934
2,11, 1,11, 0,15, 0.00,60.00,Wednesday
135,289843464.25865895
3420,289843464.2586589
3738,20141332.91820431
2,11, 1,11, 0,16, 0.00,60.00,Wednesday
135,280478987.14402807
3420,280478987.144028
3738,15652938.662030626
2,11, 1,11, 0,17, 0.00,60.00,Wednesday
135,279181916.3303099
3420,279181916.3303099
3738,25346215.62063528
2,11, 1,11, 0,18, 0.00,60.00,Wednesday
135,231503286.66667295
3420,231503286.66667295
3738,11095064.995824814
2,11, 1,11, 0,19, 0.00,60.00,Wednesday
135,130850133.25441444
3420,130850133.25441441
3738,14513081.756179092
2,11, 1,11, 0,20, 0.00,60.00,Wednesday
135,113569604.38930234
3420,113569604.38930234
3738,25657984.244537376
2,11, 1,11, 0,21, 0.00,60.00,Wednesday
135,102910895.06207252
3420,102910895.06207252
3738,34877509.53310623
2,11, 1,11, 0,22, 0.00,60.00,Wednesday
135,98267997.61519502
3420,98267997.61519504
3738,58227011.60989247
2,11, 1,11, 0,23, 0.00,60.00,Wednesday
135,77772390.65670998
3420,77772390.65670998
3738,6791184.0
2,11, 1,11, 0,24, 0.00,60.00,Wednesday
135,72442274.24247962
3420,72442274.24247962
3738,6791184.0
2,12, 1,12, 0, 1, 0.00,60.00,Thursday
135,57996196.7332391
3420,57996196.7332391
3738,6791184.0
2,12, 1,12, 0, 2, 0.00,60.00,Thursday
135,57609860.1137362
3420,57609860.1137362
3738,6791184.0
2,12, 1,12, 0, 3, 0.00,60.00,Thursday
135,57609860.1137362
3420,57609860.1137362
3738,6791184.0
2,12, 1,12, 0, 4, 0.00,60.00,Thursday
135,57609860.1137362
3420,57609860.1137362
3738,6791184.0
2,12, 1,12, 0, 5, 0.00,60.00,Thursday
135,57609860.1137362
3420,57609860.1137362
3738,6791184.0
2,12, 1,12, 0, 6, 0.00,60.00,Thursday
135,57609860.1137362
3420,57609860.1137362
3738,6791184.0
2,12, 1,12, 0, 7, 0.00,60.00,Thursday
135,101991332.40710394
3420,101991332.40710394
3738,6791184.0
2,12, 1,12, 0, 8, 0.00,60.00,Thursday
135,177045669.718324
3420,177045669.718324
3738,125704047.69466315
2,12, 1,12, 0, 9, 0.00,60.00,Thursday
135,308884679.92252624
3420,308884679.92252624
3738,84488578.82808694
2,12, 1,12, 0,10, 0.00,60.00,Thursday
135,271151517.8767137
3420,271151517.87671363
3738,72175122.00191838
2,12, 1,12, 0,11, 0.00,60.00,Thursday
135,265200740.52475595
3420,265200740.52475595
3738,54049021.74539764
2,12, 1,12, 0,12, 0.00,60.00,Thursday
135,277437091.25356215
3420,277437091.2535621
3738,45925605.75712395
2,12, 1,12, 0,13, 0.00,60.00,Thursday
135,292032254.6131818
3420,292032254.6131818
3738,38222275.461848415
2,12, 1,12, 0,14, 0.00,60.00,Thursday
135,288299425.9923981
3420,288299425.9923981
3738,34459934.182239994
2,12, 1,12, 0,15, 0.00,60.00,Thursday
135,272352681.5300619
3420,272352681.5300619
3738,17282844.57204378
2,12, 1,12, 0,16, 0.00,60.00,Thursday
135,272168804.24688685
3420,272168804.24688685
3738,23620432.90477208
2,12, 1,12, 0,17, 0.00,60.00,Thursday
135,290706451.97471803
3420,290706451.974718
3738,31031887.16199982
2,12, 1,12, 0,18, 0.00,60.00,Thursday
135,252167120.09050596
3420,252167120.09050602
3738,48767376.97216129
2,12, 1,12, 0,19, 0.00,60.00,Thursday
135,131908659.12636954
3420,131908659.12636954
3738,71412380.10305372
2,12, 1,12, 0,20, 0.00,60.00,Thursday
135,113569604.38930234
3420,113569604.38930234
3738,69809787.4238181
2,12, 1,12, 0,21, 0.00,60.00,Thursday
135,102910895.06207252
3420,102910895.06207252
3738,73650358.76266184
2,12, 1,12, 0,22, 0.00,60.00,Thursday
135,98798247.2186095
3420,98798247.21860951
3738,76537557.1166759
2,12, 1,12, 0,23, 0.00,60.00,Thursday
135,77772390.65670998
3420,77772390.65670998
3738,6791184.0
2,12, 1,12, 0,24, 0.00,60.00,Thursday
135,72442274.24247962
3420,72442274.24247962
3738,6791184.0
2,13, 1,13, 0, 1, 0.00,60.00,Friday
135,57996196.7332391
3420,57996196.7332391
3738,6791184.0
2,13, 1,13, 0, 2, 0.00,60.00,Friday
135,57609860.1137362
3420,57609860.1137362