Program Version,EnergyPlus, Version 9.6.0-f420c06a69, YMD=2022.07.05 15:10
1,5,Environment Title[],Latitude[deg],Longitude[deg],Time Zone[],Elevation[m]
2,8,Day of Simulation[],Month[],Day of Month[],DST Indicator[1=yes 0=no],Hour[],StartMinute[],EndMinute[],DayType
3,5,Cumulative Day of Simulation[],Month[],Day of Month[],DST Indicator[1=yes 0=no],DayType  ! When Daily Meters Requested
4,2,Cumulative Days of Simulation[],Month[]  ! When Monthly Meters Requested
5,1,Cumulative Days of Simulation[] ! When Run Period Meters Requested
6,1,Calendar Year of Simulation[] ! When Annual Meters Requested
135,1,Electricity:Facility [J] !Hourly
3420,1,ElectricityNet:Facility [J] !Hourly
3738,1,NaturalGas:Facility [J] !Hourly
End of Data Dictionary
1,RUNPERIOD 1,  35.04,-106.62,  -7.00,1619.00
2,1, 1, 1, 0, 1, 0.00,60.00,Holiday
135,46359074.93593144
3420,46359074.93593143
3738,6791184.0
2,1, 1, 1, 0, 2, 0.00,60.00,Holiday
135,46359235.70955593
3420,46359235.709555924
3738,6791184.0
2,1, 1, 1, 0, 3, 0.00,60.00,Holiday
135,46359235.70955593
3420,46359235.709555924
3738,6791184.0
2,1, 1, 1, 0, 4, 0.00,60.00,Holiday
135,46359235.70955593
3420,46359235.709555924
3738,6791184.0
2,1, 1, 1, 0, 5, 0.00,60.00,Holiday
135,46359235.70955593
3420,46359235.709555924
3738,6791184.0
2,1, 1, 1, 0, 6, 0.00,60.00,Holiday
135,46359235.70955593
3420,46359235.709555924
3738,6791184.0
2,1, 1, 1, 0, 7, 0.00,60.00,Holiday
135,66032185.73006148
3420,66032185.73006148
3738,6791184.0
2,1, 1, 1, 0, 8, 0.00,60.00,Holiday
135,50074623.774579875
3420,50074623.774579875
3738,6791184.0
2,1, 1, 1, 0, 9, 0.00,60.00,Holiday
135,46351708.9331394
3420,46351708.9331394
3738,6791184.0
2,1, 1, 1, 0,10, 0.00,60.00,Holiday
135,46288813.17904917
3420,46288813.179049164
3738,6791184.0
2,1, 1, 1, 0,11, 0.00,60.00,Holiday
135,50009342.363199614
3420,50009342.363199614
3738,6791184.0
2,1, 1, 1, 0,12, 0.00,60.00,Holiday
135,53617732.55272024
3420,53617732.55272024
3738,6791184.0
2,1, 1, 1, 0,13, 0.00,60.00,Holiday
135,53634290.22678877
3420,53634290.22678876
3738,6791184.0
2,1, 1, 1, 0,14, 0.00,60.00,Holiday
135,58165555.4574862
3420,58165555.45748622
3738,6791184.0
2,1, 1, 1, 0,15, 0.00,60.00,Holiday
135,62026144.28259239
3420,62026144.28259239
3738,6791184.0
2,1, 1, 1, 0,16, 0.00,60.00,Holiday
135,62605261.924326405
3420,62605261.924326405
3738,6791184.0
2,1, 1, 1, 0,17, 0.00,60.00,Holiday
135,50224406.74534619
3420,50224406.74534619
3738,6791184.0
2,1, 1, 1, 0,18, 0.00,60.00,Holiday
135,67534969.93162571
3420,67534969.93162571
3738,6791184.0
2,1, 1, 1, 0,19, 0.00,60.00,Holiday
135,57105773.81922845
3420,57105773.81922844
3738,6791184.0
2,1, 1, 1, 0,20, 0.00,60.00,Holiday
135,48904615.70955593
3420,48904615.70955593
3738,6791184.0
2,1, 1, 1, 0,21, 0.00,60.00,Holiday
135,48904615.70955593
3420,48904615.70955593
3738,6791184.0
2,1, 1, 1, 0,22, 0.00,60.00,Holiday
135,48904615.70955593
3420,48904615.70955593
3738,6791184.0
2,1, 1, 1, 0,23, 0.00,60.00,Holiday
135,48904615.70955593
3420,48904615.70955593
3738,6791184.0
2,1, 1, 1, 0,24, 0.00,60.00,Holiday
135,48904615.70955593
3420,48904615.70955593
3738,6791184.0
2,2, 1, 2, 0, 1, 0.00,60.00,Monday
135,57609860.1137362
3420,57609860.1137362
3738,6791184.0
2,2, 1, 2, 0, 2, 0.00,60.00,Monday
135,57609860.1137362
3420,57609860.1137362
3738,6791184.0
2,2, 1, 2, 0, 3, 0.00,60.00,Monday
135,57609860.1137362
3420,57609860.1137362
3738,6791184.0
2,2, 1, 2, 0, 4, 0.00,60.00,Monday
135,57609860.1137362
3420,57609860.1137362
3738,6791184.0
2,2, 1, 2, 0, 5, 0.00,60.00,Monday
135,57609860.1137362
3420,57609860.1137362
3738,6791184.0
2,2, 1, 2, 0, 6, 0.00,60.00,Monday
135,57609860.1137362
3420,57609860.1137362
3738,6791184.0
2,2, 1, 2, 0, 7, 0.00,60.00,Monday
135,137296304.18115827
3420,137296304.18115827
3738,6791184.0
2,2, 1, 2, 0, 8, 0.00,60.00,Monday
135,228091710.0508986
3420,228091710.0508986
3738,147577462.2909266
2,2, 1, 2, 0, 9, 0.00,60.00,Monday
135,310928566.17060184
3420,310928566.17060184
3738,92519461.25435951
2,2, 1, 2, 0,10, 0.00,60.00,Monday
135,270881865.80048376
3420,270881865.8004837
3738,64104549.62432517
2,2, 1, 2, 0,11, 0.00,60.00,Monday
135,266825978.4651965
3420,266825978.46519646
3738,26002213.802575894
2,2, 1, 2, 0,12, 0.00,60.00,Monday
135,286238561.40794075
3420,286238561.40794075
3738,20876803.489152778
2,2, 1, 2, 0,13, 0.00,60.00,Monday
135,288356518.2716734
3420,288356518.2716734
3738,31334359.881758783
2,2, 1, 2, 0,14, 0.00,60.00,Monday
135,302975525.7747885
3420,302975525.7747885
3738,26165959.05339483
2,2, 1, 2, 0,15, 0.00,60.00,Monday
135,294972021.31000483
3420,294972021.3100048
3738,16663111.546087924
2,2, 1, 2, 0,16, 0.00,60.00,Monday
135,299410344.29420304
3420,299410344.29420304
3738,19076358.658423744
2,2, 1, 2, 0,17, 0.00,60.00,Monday
135,298389053.9474881
3420,298389053.94748807
3738,20696594.044879485
2,2, 1, 2, 0,18, 0.00,60.00,Monday
135,237624719.45918894
3420,237624719.45918894
3738,24658594.589504886
2,2, 1, 2, 0,19, 0.00,60.00,Monday
135,131458533.53394982
3420,131458533.5339498
3738,57891981.091293484
2,2, 1, 2, 0,20, 0.00,60.00,Monday
135,116433380.00818448
3420,116433380.00818448
3738,72469446.82990465
2,2, 1, 2, 0,21, 0.00,60.00,Monday
135,107904137.86016025
3420,107904137.86016026
3738,84419336.25488532
2,2, 1, 2, 0,22, 0.00,60.00,Monday
135,105912372.76109348
3420,105912372.7610935
3738,86039928.28257765
2,2, 1, 2, 0,23, 0.00,60.00,Monday
135,77772390.65670998
3420,77772390.65670998
3738,6791184.0
2,2, 1, 2, 0,24, 0.00,60.00,Monday
135,72442274.24247962
3420,72442274.24247962
3738,6791184.0
2,3, 1, 3, 0, 1, 0.00,60.00,Tuesday
135,57996196.7332391
3420,57996196.7332391
3738,6791184.0
2,3, 1, 3, 0, 2, 0.00,60.00,Tuesday
135,57609860.1137362
3420,57609860.1137362
3738,6791184.0
2,3, 1, 3, 0, 3, 0.00,60.00,Tuesday
135,57609860.1137362
3420,57609860.1137362
3738,6791184.0
2,3, 1, 3, 0, 4, 0.00,60.00,Tuesday
135,57609860.1137362
3420,57609860.1137362
3738,6791184.0
2,3, 1, 3, 0, 5, 0.00,60.00,Tuesday
135,57609860.1137362
3420,57609860.1137362
3738,6791184.0
2,3, 1, 3, 0, 6, 0.00,60.00,Tuesday
135,57609860.1137362
3420,57609860.1137362
3738,6791184.0
2,3, 1, 3, 0, 7, 0.00,60.00,Tuesday
135,112102812.71491654
3420,112102812.71491656
3738,6791184.0
2,3, 1, 3, 0, 8, 0.00,60.00,Tuesday
135,192408370.01605332
3420,192408370.0160533
3738,131270974.34457883
2,3, 1, 3, 0, 9, 0.00,60.00,Tuesday
135,311377468.3005356
3420,311377468.30053556
3738,77011765.8614414
2,3, 1, 3, 0,10, 0.00,60.00,Tuesday
135,275991645.6933976
3420,275991645.6933976
3738,37032265.1894799
2,3, 1, 3, 0,11, 0.00,60.00,Tuesday
135,275027993.38438785
3420,275027993.38438785
3738,12356874.77290462
2,3, 1, 3, 0,12, 0.00,60.00,Tuesday
135,293027824.6580732
3420,293027824.6580732
3738,23129488.975600578
2,3, 1, 3, 0,13, 0.00,60.00,Tuesday
135,294632280.35879445
3420,294632280.3587944
3738,31312393.36103994
2,3, 1, 3, 0,14, 0.00,60.00,Tuesday
135,311631511.72635615
3420,311631511.72635615
3738,26179763.885574874
2,3, 1, 3, 0,15, 0.00,60.00,Tuesday
135,297469091.1916596
3420,297469091.1916596
3738,20133738.27406303
2,3, 1, 3, 0,16, 0.00,60.00,Tuesday
135,301048099.2336246
3420,301048099.2336245
3738,15641933.428970817
2,3, 1, 3, 0,17, 0.00,60.00,Tuesday
135,304381337.59458923
3420,304381337.5945892
3738,21131219.676558174
2,3, 1, 3, 0,18, 0.00,60.00,Tuesday
135,241555527.0717467
3420,241555527.07174665
3738,18150591.1484727
2,3, 1, 3, 0,19, 0.00,60.00,Tuesday
135,131866343.2953921
3420,131866343.2953921
3738,35254282.540325396
2,3, 1, 3, 0,20, 0.00,60.00,Tuesday
135,113569604.38930234
3420,113569604.38930234
3738,55618240.98964385
2,3, 1, 3, 0,21, 0.00,60.00,Tuesday
135,103004750.63109705
3420,103004750.63109705
3738,64520228.30643645
2,3, 1, 3, 0,22, 0.00,60.00,Tuesday
135,100314428.85157591
3420,100314428.85157594
3738,93974720.59014836
2,3, 1, 3, 0,23, 0.00,60.00,Tuesday
135,77772390.65670998
3420,77772390.65670998
3738,6791184.0
2,3, 1, 3, 0,24, 0.00,60.00,Tuesday
135,72442274.24247962
3420,72442274.24247962
3738,6791184.0
2,4, 1, 4, 0, 1, 0.00,60.00,Wednesday
135,57996196.7332391
3420,57996196.7332391
3738,6791184.0
2,4, 1, 4, 0, 2, 0.00,60.00,Wednesday
135,57609860.1137362
3420,57609860.1137362
3738,6791184.0
2,4, 1, 4, 0, 3, 0.00,60.00,Wednesday
135,57609860.1137362
3420,57609860.1137362
3738,6791184.0
2,4, 1, 4, 0, 4, 0.00,60.00,Wednesday
135,57609860.1137362
3420,57609860.1137362
3738,6791184.0
2,4, 1, 4, 0, 5, 0.00,60.00,Wednesday
135,57609860.1137362
3420,57609860.1137362
3738,6791184.0
2,4, 1, 4, 0, 6, 0.00,60.00,Wednesday
135,57609860.1137362
3420,57609860.1137362
3738,6791184.0
2,4, 1, 4, 0, 7, 0.00,60.00,Wednesday
135,107774072.52574906
3420,107774072.52574907
3738,6791184.0
2,4, 1, 4, 0, 8, 0.00,60.00,Wednesday
135,190977085.51973185
3420,190977085.51973185
3738,152549075.17350966
2,4, 1, 4, 0, 9, 0.00,60.00,Wednesday
135,309442795.73769474
3420,309442795.7376947
3738,90061261.93808414
2,4, 1, 4, 0,10, 0.00,60.00,Wednesday
135,270429451.7583626
3420,270429451.7583626
3738,61809308.47868821
2,4, 1, 4, 0,11, 0.00,60.00,Wednesday
135,264628704.1230281
3420,264628704.1230281
3738,42705920.408390485
2,4, 1, 4, 0,12, 0.00,60.00,Wednesday
135,278718611.7130605
3420,278718611.7130605
3738,27237330.092575423
2,4, 1, 4, 0,13, 0.00,60.00,Wednesday
135,284511525.7473638
3420,284511525.7473638
3738,31351205.050687008
2,4, 1, 4, 0,14, 0.00,60.00,Wednesday
135,289894129.4150424
3420,289894129.4150424
3738,26189702.813008703
2,4, 1, 4, 0,15, 0.00,60.00,Wednesday
135,275182970.10820526
3420,275182970.1082052
3738,20162358.474987995
2,4, 1, 4, 0,16, 0.00,60.00,Wednesday
135,274853282.9723808
3420,274853282.97238076
3738,15652705.375646915
2,4, 1, 4, 0,17, 0.00,60.00,Wednesday
135,294556686.5135559
3420,294556686.5135559
3738,25318578.899761163
2,4, 1, 4, 0,18, 0.00,60.00,Wednesday
135,251267316.60602063
3420,251267316.60602063
3738,20631977.949197866
2,4, 1, 4, 0,19, 0.00,60.00,Wednesday
135,131888589.07372302
3420,131888589.07372302
3738,37714540.541103825
2,4, 1, 4, 0,20, 0.00,60.00,Wednesday
135,113569604.38930234
3420,113569604.38930234
3738,52554108.24589509
2,4, 1, 4, 0,21, 0.00,60.00,Wednesday
135,102913361.90140839
3420,102913361.90140839
3738,65833880.561717674
2,4, 1, 4, 0,22, 0.00,60.00,Wednesday
135,99099294.84500085
3420,99099294.84500086
3738,77140171.07041092
2,4, 1, 4, 0,23, 0.00,60.00,Wednesday
135,77772390.65670998
3420,77772390.65670998
3738,6791184.0
2,4, 1, 4, 0,24, 0.00,60.00,Wednesday
135,72442274.24247962
3420,72442274.24247962
3738,6791184.0
2,5, 1, 5, 0, 1, 0.00,60.00,Thursday
135,57996196.7332391
3420,57996196.7332391
3738,6791184.0
2,5, 1, 5, 0, 2, 0.00,60.00,Thursday
135,57609860.1137362
3420,57609860.1137362
3738,6791184.0
2,5, 1, 5, 0, 3, 0.00,60.00,Thursday
135,57609860.1137362
3420,57609860.1137362
3738,6791184.0
2,5, 1, 5, 0, 4, 0.00,60.00,Thursday
135,57609860.1137362
3420,57609860.1137362
3738,6791184.0
2,5, 1, 5, 0, 5, 0.00,60.00,Thursday
135,57609860.1137362
3420,57609860.1137362
3738,6791184.0
2,5, 1, 5, 0, 6, 0.00,60.00,Thursday
135,57609860.1137362
3420,57609860.1137362
3738,6791184.0
2,5, 1, 5, 0, 7, 0.00,60.00,Thursday
135,100664134.13277073
3420,100664134.13277075
3738,6791184.0
2,5, 1, 5, 0, 8, 0.00,60.00,Thursday
135,179218138.09158877
3420,179218138.09158877
3738,123385563.81631427
2,5, 1, 5, 0, 9, 0.00,60.00,Thursday
135,310140494.9575479
3420,310140494.9575479
3738,66366961.95607806
2,5, 1, 5, 0,10, 0.00,60.00,Thursday
135,278302077.47215706
3420,278302077.47215706
3738,21145617.81198257
2,5, 1, 5, 0,11, 0.00,60.00,Thursday
135,277656547.2238385
3420,277656547.22383845
3738,11332705.54928314
2,5, 1, 5, 0,12, 0.00,60.00,Thursday
135,290287840.52319187
3420,290287840.5231918
3738,20890782.0365476
2,5, 1, 5, 0,13, 0.00,60.00,Thursday
135,290349019.8888911
3420,290349019.8888911
3738,31320858.562127728
2,5, 1, 5, 0,14, 0.00,60.00,Thursday
135,311941214.5494007
3420,311941214.54940075
3738,26189007.473221518
2,5, 1, 5, 0,15, 0.00,60.00,Thursday
135,305260067.94258845
3420,305260067.9425884
3738,20203910.290040478
2,5, 1, 5, 0,16, 0.00,60.00,Thursday
135,309027881.6614876
3420,309027881.6614876
3738,15641467.481528439
2,5, 1, 5, 0,17, 0.00,60.00,Thursday
135,312443656.95504934
3420,312443656.9550493
3738,25322054.82401494
2,5, 1, 5, 0,18, 0.00,60.00,Thursday
135,244621806.36539933
3420,244621806.36539933
3738,11106437.11808634
2,5, 1, 5, 0,19, 0.00,60.00,Thursday
135,132384235.43671827
3420,132384235.43671827
3738,18515542.883175965
2,5, 1, 5, 0,20, 0.00,60.00,Thursday
135,113569604.38930234
3420,113569604.38930234
3738,38182825.55833641
2,5, 1, 5, 0,21, 0.00,60.00,Thursday
135,102910895.06207252
3420,102910895.06207252
3738,50500896.487481296
2,5, 1, 5, 0,22, 0.00,60.00,Thursday
135,98331323.74705626
3420,98331323.74705628
3738,64229737.95698746
2,5, 1, 5, 0,23, 0.00,60.00,Thursday
135,77772390.65670998
3420,77772390.65670998
3738,6791184.0
2,5, 1, 5, 0,24, 0.00,60.00,Thursday
135,72442274.24247962
3420,72442274.24247962
3738,6791184.0
2,6, 1, 6, 0, 1, 0.00,60.00,Friday
135,57996196.7332391
3420,57996196.7332391
3738,6791184.0
2,6, 1, 6, 0, 2, 0.00,60.00,Friday
135,57609860.1137362
3420,57609860.1137362
3738,6791184.0
2,6, 1, 6, 0, 3, 0.00,60.00,Friday
135,57609860.1137362
3420,57609860.1137362
3738,6791184.0
2,6, 1, 6, 0, 4, 0.00,60.00,Friday
135,57609860.1137362
3420,57609860.1137362
3738,6791184.0
2,6, 1, 6, 0, 5, 0.00,60.00,Friday
135,57609860.1137362
3420,57609860.1137362
3738,6791184.0
2,6, 1, 6, 0, 6, 0.00,60.00,Friday
135,57609860.1137362
3420,57609860.1137362
3738,6791184.0
2,6, 1, 6, 0, 7, 0.00,60.00,Friday
135,104692760.88779551
3420,104692760.88779552
3738,6791184.0
2,6, 1, 6, 0, 8, 0.00,60.00,Friday
135,191230922.81471357
3420,191230922.81471357
3738,128552154.9998607
2,6, 1, 6, 0, 9, 0.00,60.00,Friday
135,313449081.7035528
3420,313449081.7035528
3738,89613570.99096458
2,6, 1, 6, 0,10, 0.00,60.00,Friday
135,269642642.22146577
3420,269642642.2214657
3738,82140433.02802077
2,6, 1, 6, 0,11, 0.00,60.00,Friday
135,261886479.9875229
3420,261886479.9875229
3738,71738689.1487914
2,6, 1, 6, 0,12, 0.00,60.00,Friday
135,279227605.82357264
3420,279227605.82357264
3738,49220175.092944235
2,6, 1, 6, 0,13, 0.00,60.00,Friday
135,288514578.30768704
3420,288514578.30768704
3738,28287816.253479224
2,6, 1, 6, 0,14, 0.00,60.00,Friday
135,301485464.5042886
3420,301485464.50428855
3738,27522710.58729694
2,6, 1, 6, 0,15, 0.00,60.00,Friday
135,288536581.7902574
3420,288536581.7902574
3738,18948093.63590509
2,6, 1, 6, 0,16, 0.00,60.00,Friday
135,291222764.0796864
3420,291222764.0796864
3738,15649013.703217
2,6, 1, 6, 0,17, 0.00,60.00,Friday
135,301524140.1565262
3420,301524140.1565261
3738,25643523.20672138
2,6, 1, 6, 0,18, 0.00,60.00,Friday
135,250636539.11324325
3420,250636539.11324325
3738,54800786.72640758
2,6, 1, 6, 0,19, 0.00,60.00,Friday
135,131485260.74506974
3420,131485260.74506974
3738,82860163.31580386
2,6, 1, 6, 0,20, 0.00,60.00,Friday
135,113698440.92511103
3420,113698440.92511103
3738,86038261.20579824
2,6, 1, 6, 0,21, 0.00,60.00,Friday
135,105065647.80495234
3420,105065647.80495235
3738,103349671.1367349
2,6, 1, 6, 0,22, 0.00,60.00,Friday
135,101879628.78208283
3420,101879628.78208286
3738,102049353.82039228
2,6, 1, 6, 0,23, 0.00,60.00,Friday
135,77772390.65670998
3420,77772390.65670998
3738,6791184.0
2,6, 1, 6, 0,24, 0.00,60.00,Friday
135,72442274.24247962
3420,72442274.24247962
3738,6791184.0
2,7, 1, 7, 0, 1, 0.00,60.00,Saturday
135,46745513.81922844
3420,46745513.81922843
3738,6791184.0
2,7, 1, 7, 0, 2, 0.00,60.00,Saturday
135,46359235.70955593
3420,46359235.709555924
3738,6791184.0
2,7, 1, 7, 0, 3, 0.00,60.00,Saturday
135,46359235.70955593
3420,46359235.709555924
3738,6791184.0
2,7, 1, 7, 0, 4, 0.00,60.00,Saturday
135,46359235.70955593
3420,46359235.709555924
3738,6791184.0
2,7, 1, 7, 0, 5, 0.00,60.00,Saturday
135,46359235.70955593
3420,46359235.709555924
3738,6791184.0
2,7, 1, 7, 0, 6, 0.00,60.00,Saturday
135,46359235.70955593
3420,46359235.709555924
3738,6791184.0
2,7, 1, 7, 0, 7, 0.00,60.00,Saturday
135,114243520.86393452
3420,114243520.86393452
3738,6791184.0
2,7, 1, 7, 0, 8, 0.00,60.00,Saturday
135,145336722.3926114
3420,145336722.3926114
3738,136705521.5249528
2,7, 1, 7, 0, 9, 0.00,60.00,Saturday
135,135880145.49639097
3420,135880145.49639097
3738,119728191.03389083
2,7, 1, 7, 0,10, 0.00,60.00,Saturday
135,136649462.9317931
3420,136649462.9317931
3738,106496351.49772719
2,7, 1, 7, 0,11, 0.00,60.00,Saturday
135,129025722.21317357
3420,129025722.21317354
3738,78888099.0334056
2,7, 1, 7, 0,12, 0.00,60.00,Saturday
135,137623695.46984386
3420,137623695.46984392
3738,37658309.10205995
2,7, 1, 7, 0,13, 0.00,60.00,Saturday
135,96882759.0683891
3420,96882759.0683891
3738,24908990.810949102
2,7, 1, 7, 0,14, 0.00,60.00,Saturday
135,86585388.12843831
3420,86585388.12843831
3738,26694846.20755917
2,7, 1, 7, 0,15, 0.00,60.00,Saturday
135,80777988.06353001
3420,80777988.06353001
3738,24327998.146299496
2,7, 1, 7, 0,16, 0.00,60.00,Saturday
135,76390043.05621484
3420,76390043.05621485
3738,32454978.106216453
2,7, 1, 7, 0,17, 0.00,60.00,Saturday
135,79595578.36627977
3420,79595578.36627978
3738,41560906.51453599
2,7, 1, 7, 0,18, 0.00,60.00,Saturday
135,83077160.33306564
3420,83077160.33306564
3738,55505117.38757939
2,7, 1, 7, 0,19, 0.00,60.00,Saturday
135,66276703.53612528
3420,66276703.53612528
3738,6791184.0
2,7, 1, 7, 0,20, 0.00,60.00,Saturday
135,49290893.81922844
3420,49290893.81922844
3738,6791184.0
2,7, 1, 7, 0,21, 0.00,60.00,Saturday
135,48904615.70955593
3420,48904615.70955593
3738,6791184.0
2,7, 1, 7, 0,22, 0.00,60.00,Saturday
135,48904615.70955593
3420,48904615.70955593
3738,6791184.0
2,7, 1, 7, 0,23, 0.00,60.00,Saturday
135,48904615.70955593
3420,48904615.70955593
3738,6791184.0
2,7, 1, 7, 0,24, 0.00,60.00,Saturday
135,48904615.70955593
3420,48904615.70955593
3738,6791184.0
2,8, 1, 8, 0, 1, 0.00,60.00,Sunday
135,46359235.70955593
3420,46359235.709555924
3738,6791184.0
2,8, 1, 8, 0, 2, 0.00,60.00,Sunday
135,46359235.70955593
3420,46359235.709555924
3738,6791184.0
2,8, 1, 8, 0, 3, 0.00,60.00,Sunday
135,46359235.70955593
3420,46359235.709555924
3738,6791184.0
2,8, 1, 8, 0, 4, 0.00,60.00,Sunday
135,46359235.70955593
3420,46359235.709555924
3738,6791184.0
2,8, 1, 8, 0, 5, 0.00,60.00,Sunday
135,46359235.70955593
3420,46359235.709555924
3738,6791184.0
2,8, 1, 8, 0, 6, 0.00,60.00,Sunday
135,46359235.70955593
3420,46359235.709555924
3738,6791184.0
2,8, 1, 8, 0, 7, 0.00,60.00,Sunday
135,66032185.73006148
3420,66032185.73006148
3738,6791184.0
2,8, 1, 8, 0, 8, 0.00,60.00,Sunday
135,53323580.330645084
3420,53323580.330645084
3738,6791184.0
2,8, 1, 8, 0, 9, 0.00,60.00,Sunday
135,46344166.24829911
3420,46344166.24829911
3738,6791184.0
2,8, 1, 8, 0,10, 0.00,60.00,Sunday
135,46288812.51597283
3420,46288812.51597283
3738,6791184.0
2,8, 1, 8, 0,11, 0.00,60.00,Sunday
135,47246006.34324
3420,47246006.34323999
3738,6791184.0
2,8, 1, 8, 0,12, 0.00,60.00,Sunday
135,50964555.3327159
3420,50964555.33271589
3738,6791184.0
2,8, 1, 8, 0,13, 0.00,60.00,Sunday
135,53625802.42750436
3420,53625802.42750437
3738,6791184.0
2,8, 1, 8, 0,14, 0.00,60.00,Sunday
135,54307215.677956074
3420,54307215.677956074
3738,6791184.0
2,8, 1, 8, 0,15, 0.00,60.00,Sunday
135,53571799.010946944
3420,53571799.010946944
3738,6791184.0
2,8, 1, 8, 0,16, 0.00,60.00,Sunday
135,54093156.71478446
3420,54093156.71478446
3738,6791184.0
2,8, 1, 8, 0,17, 0.00,60.00,Sunday
135,50079799.93191748
3420,50079799.93191748
3738,6791184.0
2,8, 1, 8, 0,18, 0.00,60.00,Sunday
135,66276671.30593526
3420,66276671.30593526
3738,6791184.0
2,8, 1, 8, 0,19, 0.00,60.00,Sunday
135,57105773.81922845
3420,57105773.81922844
3738,6791184.0
2,8, 1, 8, 0,20, 0.00,60.00,Sunday
135,48904615.70955593
3420,48904615.70955593
3738,6791184.0
2,8, 1, 8, 0,21, 0.00,60.00,Sunday
135,48904615.70955593
3420,48904615.70955593
3738,6791184.0
2,8, 1, 8, 0,22, 0.00,60.00,Sunday
135,48904615.70955593
3420,48904615.70955593
3738,6791184.0
2,8, 1, 8, 0,23, 0.00,60.00,Sunday
135,48904615.70955593
3420,48904615.70955593
3738,6791184.0
2,8, 1, 8, 0,24, 0.00,60.00,Sunday
135,48904615.70955593
3420,48904615.70955593
3738,6791184.0
2,9, 1, 9, 0, 1, 0.00,60.00,Monday
135,57609860.1137362
3420,57609860.1137362
3738,6791184.0
2,9, 1, 9, 0, 2, 0.00,60.00,Monday
135,57609860.1137362
3420,57609860.1137362
3738,6791184.0
2,9, 1, 9, 0, 3, 0.00,60.00,Monday
135,57609860.1137362
3420,57609860.1137362
3738,6791184.0
2,9, 1, 9, 0, 4, 0.00,60.00,Monday
135,57609860.1137362
3420,57609860.1137362
3738,6791184.0
2,9, 1, 9, 0, 5, 0.00,60.00,Monday
135,57609860.1137362
3420,57609860.1137362
3738,6791184.0
2,9, 1, 9, 0, 6, 0.00,60.00,Monday
135,57609860.1137362
3420,57609860.1137362
3738,6791184.0
2,9, 1, 9, 0, 7, 0.00,60.00,Monday
135,132372663.01436532
3420,132372663.01436532
3738,6791184.0
2,9, 1, 9, 0, 8, 0.00,60.00,Monday
135,223626438.0107499
3420,223626438.01074985
3738,138753728.09485507
2,9, 1, 9, 0, 9, 0.00,60.00,Monday
135,315043023.7809407
3420,315043023.78094065
3738,84704220.11697502
2,9, 1, 9, 0,10, 0.00,60.00,Monday
135,274134022.10216814
3420,274134022.10216814
3738,59953005.92052851
2,9, 1, 9, 0,11, 0.00,60.00,Monday
135,269093090.63818806
3420,269093090.638188
3738,24765030.340542726
2,9, 1, 9, 0,12, 0.00,60.00,Monday
135,287221976.84144527
3420,287221976.84144527
3738,20903859.2004366
2,9, 1, 9, 0,13, 0.00,60.00,Monday
135,289975720.5542114
3420,289975720.5542114
3738,31377121.743687578
2,9, 1, 9, 0,14, 0.00,60.00,Monday
135,305764406.3524608
3420,305764406.3524608
3738,26214860.377184466
2,9, 1, 9, 0,15, 0.00,60.00,Monday
135,299508885.2855334
3420,299508885.2855334
3738,20170810.52186656
2,9, 1, 9, 0,16, 0.00,60.00,Monday
135,308052978.6605558
3420,308052978.6605558
3738,15657221.112240832
2,9, 1, 9, 0,17, 0.00,60.00,Monday
135,319066976.14345896
3420,319066976.14345896
3738,25337008.433143444
2,9, 1, 9, 0,18, 0.00,60.00,Monday
135,241651473.5483804
3420,241651473.54838037
3738,13349538.69651255
2,9, 1, 9, 0,19, 0.00,60.00,Monday
135,131778254.03525123
3420,131778254.03525123
3738,35069337.47313582
2,9, 1, 9, 0,20, 0.00,60.00,Monday
135,113897981.68701358
3420,113897981.68701358
3738,44712592.45911743
2,9, 1, 9, 0,21, 0.00,60.00,Monday
135,104850661.96069536
3420,104850661.96069536
3738,34451947.230764255
2,9, 1, 9, 0,22, 0.00,60.00,Monday
135,101927646.17107958
3420,101927646.17107958
3738,41772165.88665308
2,9, 1, 9, 0,23, 0.00,60.00,Monday
135,77772390.65670998
3420,77772390.65670998
3738,6791184.0
2,9, 1, 9, 0,24, 0.00,60.00,Monday
135,72442274.24247962
3420,72442274.24247962
3738,6791184.0
2,10, 1,10, 0, 1, 0.00,60.00,Tuesday
135,57996196.7332391
3420,57996196.7332391
3738,6791184.0
2,10, 1,10, 0, 2, 0.00,60.00,Tuesday
135,57609860.1137362
3420,57609860.1137362
3738,6791184.0
2,10, 1,10, 0, 3, 0.00,60.00,Tuesday
135,57609860.1137362
3420,57609860.1137362
3738,6791184.0
2,10, 1,10, 0, 4, 0.00,60.00,Tuesday
135,57609860.1137362
3420,57609860.1137362
3738,6791184.0
2,10, 1,10, 0, 5, 0.00,60.00,Tuesday
135,57609860.1137362
3420,57609860.1137362
3738,6791184.0
2,10, 1,10, 0, 6, 0.00,60.00,Tuesday
135,57609860.1137362
3420,57609860.1137362
3738,6791184.0
2,10, 1,10, 0, 7, 0.00,60.00,Tuesday
135,114447834.803484
3420,114447834.80348401
3738,6791184.0
2,10, 1,10, 0, 8, 0.00,60.00,Tuesday
135,197470736.5812114
3420,197470736.58121142
3738,152946993.4320677
2,10, 1,10, 0, 9, 0.00,60.00,Tuesday
135,308414554.4911871
3420,308414554.4911871
3738,98265251.44256657
2,10, 1,10, 0,10, 0.00,60.00,Tuesday
135,268629231.4915489
3420,268629231.4915489
3738,76928845.81168923
2,10, 1,10, 0,11, 0.00,60.00,Tuesday
135,260943005.81852344
3420,260943005.8185234
3738,66806618.1538448
2,10, 1,10, 0,12, 0.00,60.00,Tuesday
135,270744904.8358189
3420,270744904.8358189
3738,77690319.86646023
2,10, 1,10, 0,13, 0.00,60.00,Tuesday
135,290739830.22222614
3420,290739830.22222614
3738,59521212.43474226
2,10, 1,10, 0,14, 0.00,60.00,Tuesday
135,285649260.23588276
3420,285649260.23588276
3738,41168121.998030715
2,10, 1,10, 0,15, 0.00,60.00,Tuesday
135,276350165.91985446
3420,276350165.91985446
3738,17352028.350639522
2,10, 1,10, 0,16, 0.00,60.00,Tuesday
135,277907541.27810305
3420,277907541.27810305
3738,17453313.58618685
2,10, 1,10, 0,17, 0.00,60.00,Tuesday
135,287756974.087641
3420,287756974.087641
3738,40342054.11012854
2,10, 1,10, 0,18, 0.00,60.00,Tuesday
135,246443117.27858472
3420,246443117.27858472
3738,80006272.17492475
2,10, 1,10, 0,19, 0.00,60.00,Tuesday
135,133391459.71468621
3420,133391459.7146862
3738,156433315.1319302
2,10, 1,10, 0,20, 0.00,60.00,Tuesday
135,119479141.29238002
3420,119479141.29238006
3738,167387039.4748933
2,10, 1,10, 0,21, 0.00,60.00,Tuesday
135,112931673.54514292
3420,112931673.54514292
3738,184148797.8636431
2,10, 1,10, 0,22, 0.00,60.00,Tuesday
135,118315472.42925964
3420,118315472.42925964
3738,198926437.79674792
2,10, 1,10, 0,23, 0.00,60.00,Tuesday
135,77772390.65670998
3420,77772390.65670998
3738,6791184.0
2,10, 1,10, 0,24, 0.00,60.00,Tuesday
135,72442274.24247962
3420,72442274.24247962
3738,6791184.0
2,11, 1,11, 0, 1, 0.00,60.00,Wednesday
135,57996196.7332391
3420,57996196.7332391
3738,6791184.0
2,11, 1,11, 0, 2, 0.00,60.00,Wednesday
135,57609860.1137362
3420,57609860.1137362
3738,6791184.0
2,11, 1,11, 0, 3, 0.00,60.00,Wednesday
135,57609860.1137362
3420,57609860.1137362
3738,6791184.0
2,11, 1,11, 0, 4, 0.00,60.00,Wednesday
135,57609860.1137362
3420,57609860.1137362
3738,6791184.0
2,11, 1,11, 0, 5, 0.00,60.00,Wednesday
135,57609860.1137362
3420,57609860.1137362
3738,6791184.0
2,11, 1,11, 0, 6, 0.00,60.00,Wednesday
135,76134408.27502632
3420,76134408.27502632
3738,6791184.0
2,11, 1,11, 0, 7, 0.00,60.00,Wednesday
135,155822968.87220865
3420,155822968.87220865
3738,6791184.0
2,11, 1,11, 0, 8, 0.00,60.00,Wednesday
135,232424598.98002213
3420,232424598.98002213
3738,169942313.6420375
2,11, 1,11, 0, 9, 0.00,60.00,Wednesday
135,322174306.3961378
3420,322174306.39613783
3738,106735397.160209
2,11, 1,11, 0,10, 0.00,60.00,Wednesday
135,272559993.86911047
3420,272559993.86911047
3738,89685712.46337545
2,11, 1,11, 0,11, 0.00,60.00,Wednesday
135,262920202.19693834
3420,262920202.19693834
3738,55294213.89802541
2,11, 1,11, 0,12, 0.00,60.00,Wednesday
135,274670826.47522146
3420,274670826.4752215
3738,52514221.977436036
2,11, 1,11, 0,13, 0.00,60.00,Wednesday
135,290472275.0386926
3420,290472275.0386926
3738,55674160.36044854
2,11, 1,11, 0,14, 0.00,60.00,Wednesday
135,283628405.7288895
3420,283628405.7288895
3738,40307385.16710053
2,11, 1,11, 0,15, 0.00,60.00,Wednesday
135,268512821.3454829
3420,268512821.3454828
3738,31557995.5702435
2,11, 1,11, 0,16, 0.00,60.00,Wednesday
135,267429094.8563679
3420,267429094.85636783
3738,38386245.988777205
2,11, 1,11, 0,17, 0.00,60.00,Wednesday
135,284346518.3928713
3420,284346518.39287126
3738,64453991.8149408
2,11, 1,11, 0,18, 0.00,60.00,Wednesday
135,247028818.00760058
3420,247028818.00760058
3738,64446154.86108023
2,11, 1,11, 0,19, 0.00,60.00,Wednesday
135,135019263.22088337
3420,135019263.22088337
3738,95462735.82003315
2,11, 1,11, 0,20, 0.00,60.00,Wednesday
135,119015978.388917
3420,119015978.388917
3738,103673218.2794993
2,11, 1,11, 0,21, 0.00,60.00,Wednesday
135,111957008.72360386
3420,111957008.72360386
3738,102904064.03014901
2,11, 1,11, 0,22, 0.00,60.00,Wednesday
135,111155136.04538669
3420,111155136.0453867
3738,115178533.79555632
2,11, 1,11, 0,23, 0.00,60.00,Wednesday
135,77772390.65670998
3420,77772390.65670998
3738,6791184.0
2,11, 1,11, 0,24, 0.00,60.00,Wednesday
135,72442274.24247962
3420,72442274.24247962
3738,6791184.0
2,12, 1,12, 0, 1, 0.00,60.00,Thursday
135,57996196.7332391
3420,57996196.7332391
3738,6791184.0
2,12, 1,12, 0, 2, 0.00,60.00,Thursday
135,57609860.1137362
3420,57609860.1137362
3738,6791184.0
2,12, 1,12, 0, 3, 0.00,60.00,Thursday
135,57609860.1137362
3420,57609860.1137362
3738,6791184.0
2,12, 1,12, 0, 4, 0.00,60.00,Thursday
135,57609860.1137362
3420,57609860.1137362
3738,6791184.0
2,12, 1,12, 0, 5, 0.00,60.00,Thursday
135,57609860.1137362
3420,57609860.1137362
3738,6791184.0
2,12, 1,12, 0, 6, 0.00,60.00,Thursday
135,57609860.1137362
3420,57609860.1137362
3738,6791184.0
2,12, 1,12, 0, 7, 0.00,60.00,Thursday
135,120856829.0331547
3420,120856829.03315468
3738,6791184.0
2,12, 1,12, 0, 8, 0.00,60.00,Thursday
135,208688741.99429956
3420,208688741.99429956
3738,143982389.93154836
2,12, 1,12, 0, 9, 0.00,60.00,Thursday
135,313134140.7315785
3420,313134140.7315785
3738,93885509.26612115
2,12, 1,12, 0,10, 0.00,60.00,Thursday
135,268233188.6724175
3420,268233188.67241746
3738,82166014.32661194
2,12, 1,12, 0,11, 0.00,60.00,Thursday
135,260257028.97710374
3420,260257028.97710374
3738,64898148.38658888
2,12, 1,12, 0,12, 0.00,60.00,Thursday
135,272018674.5442035
3420,272018674.5442035
3738,60594789.21395415
2,12, 1,12, 0,13, 0.00,60.00,Thursday
135,292086538.9959758
3420,292086538.99597573
3738,54007556.92831612
2,12, 1,12, 0,14, 0.00,60.00,Thursday
135,282761785.55340886
3420,282761785.55340886
3738,50778424.341539934
2,12, 1,12, 0,15, 0.00,60.00,Thursday
135,267629720.3098376
3420,267629720.30983752
3738,31885479.734684203
2,12, 1,12, 0,16, 0.00,60.00,Thursday
135,267496513.86351869
3420,267496513.86351866
3738,39689061.772188924
2,12, 1,12, 0,17, 0.00,60.00,Thursday
135,286100504.5207561
3420,286100504.52075607
3738,46350240.7202508
2,12, 1,12, 0,18, 0.00,60.00,Thursday
135,248375495.18392345
3420,248375495.18392348
3738,57059032.13649322
2,12, 1,12, 0,19, 0.00,60.00,Thursday
135,135760700.92500222
3420,135760700.9250022
3738,86011459.85284674
2,12, 1,12, 0,20, 0.00,60.00,Thursday
135,115898160.14219598
3420,115898160.14219598
3738,82985510.41084008
2,12, 1,12, 0,21, 0.00,60.00,Thursday
135,108100343.68219629
3420,108100343.68219632
3738,86372560.59681743
2,12, 1,12, 0,22, 0.00,60.00,Thursday
135,106275532.64649197
3420,106275532.646492
3738,90358558.16578606
2,12, 1,12, 0,23, 0.00,60.00,Thursday
135,77772390.65670998
3420,77772390.65670998
3738,6791184.0
2,12, 1,12, 0,24, 0.00,60.00,Thursday
135,72442274.24247962
3420,72442274.24247962
3738,6791184.0
2,13, 1,13, 0, 1, 0.00,60.00,Friday
135,57996196.7332391
3420,57996196.7332391
3738,6791184.0