Program Version,EnergyPlus, Version 9.6.0-f420c06a69, YMD=2022.07.16 14:51
1,5,Environment Title[],Latitude[deg],Longitude[deg],Time Zone[],Elevation[m]
2,8,Day of Simulation[],Month[],Day of Month[],DST Indicator[1=yes 0=no],Hour[],StartMinute[],EndMinute[],DayType
3,5,Cumulative Day of Simulation[],Month[],Day of Month[],DST Indicator[1=yes 0=no],DayType  ! When Daily Meters Requested
4,2,Cumulative Days of Simulation[],Month[]  ! When Monthly Meters Requested
5,1,Cumulative Days of Simulation[] ! When Run Period Meters Requested
6,1,Calendar Year of Simulation[] ! When Annual Meters Requested
135,1,Electricity:Facility [J] !Hourly
3420,1,ElectricityNet:Facility [J] !Hourly
3738,1,NaturalGas:Facility [J] !Hourly
End of Data Dictionary
1,RUNPERIOD 1,  35.04,-106.62,  -7.00,1619.00
2,1, 1, 1, 0, 1, 0.00,60.00,Holiday
135,46359074.93593144
3420,46359074.93593143
3738,6791184.0
2,1, 1, 1, 0, 2, 0.00,60.00,Holiday
135,46359235.70955593
3420,46359235.709555924
3738,6791184.0
2,1, 1, 1, 0, 3, 0.00,60.00,Holiday
135,46359235.70955593
3420,46359235.709555924
3738,6791184.0
2,1, 1, 1, 0, 4, 0.00,60.00,Holiday
135,46359235.70955593
3420,46359235.709555924
3738,6791184.0
2,1, 1, 1, 0, 5, 0.00,60.00,Holiday
135,46359235.70955593
3420,46359235.709555924
3738,6791184.0
2,1, 1, 1, 0, 6, 0.00,60.00,Holiday
135,46359235.70955593
3420,46359235.709555924
3738,6791184.0
2,1, 1, 1, 0, 7, 0.00,60.00,Holiday
135,66032185.73006148
3420,66032185.73006148
3738,6791184.0
2,1, 1, 1, 0, 8, 0.00,60.00,Holiday
135,50074623.774579875
3420,50074623.774579875
3738,6791184.0
2,1, 1, 1, 0, 9, 0.00,60.00,Holiday
135,46351708.9331394
3420,46351708.9331394
3738,6791184.0
2,1, 1, 1, 0,10, 0.00,60.00,Holiday
135,46288813.17904917
3420,46288813.179049164
3738,6791184.0
2,1, 1, 1, 0,11, 0.00,60.00,Holiday
135,51149014.50787013
3420,51149014.50787013
3738,6791184.0
2,1, 1, 1, 0,12, 0.00,60.00,Holiday
135,53542591.30173427
3420,53542591.30173427
3738,6791184.0
2,1, 1, 1, 0,13, 0.00,60.00,Holiday
135,54827857.64153222
3420,54827857.64153222
3738,6791184.0
2,1, 1, 1, 0,14, 0.00,60.00,Holiday
135,61196507.52122828
3420,61196507.5212283
3738,6791184.0
2,1, 1, 1, 0,15, 0.00,60.00,Holiday
135,67239153.60782859
3420,67239153.60782859
3738,6791184.0
2,1, 1, 1, 0,16, 0.00,60.00,Holiday
135,64721412.807741076
3420,64721412.80774109
3738,6791184.0
2,1, 1, 1, 0,17, 0.00,60.00,Holiday
135,55473596.479658276
3420,55473596.479658276
3738,6791184.0
2,1, 1, 1, 0,18, 0.00,60.00,Holiday
135,66905826.86107348
3420,66905826.86107348
3738,6791184.0
2,1, 1, 1, 0,19, 0.00,60.00,Holiday
135,57105773.81922845
3420,57105773.81922844
3738,6791184.0
2,1, 1, 1, 0,20, 0.00,60.00,Holiday
135,48904615.70955593
3420,48904615.70955593
3738,6791184.0
2,1, 1, 1, 0,21, 0.00,60.00,Holiday
135,48904615.70955593
3420,48904615.70955593
3738,6791184.0
2,1, 1, 1, 0,22, 0.00,60.00,Holiday
135,48904615.70955593
3420,48904615.70955593
3738,6791184.0
2,1, 1, 1, 0,23, 0.00,60.00,Holiday
135,48904615.70955593
3420,48904615.70955593
3738,6791184.0
2,1, 1, 1, 0,24, 0.00,60.00,Holiday
135,48904615.70955593
3420,48904615.70955593
3738,6791184.0
2,2, 1, 2, 0, 1, 0.00,60.00,Monday
135,57609860.1137362
3420,57609860.1137362
3738,6791184.0
2,2, 1, 2, 0, 2, 0.00,60.00,Monday
135,57609860.1137362
3420,57609860.1137362
3738,6791184.0
2,2, 1, 2, 0, 3, 0.00,60.00,Monday
135,57609860.1137362
3420,57609860.1137362
3738,6791184.0
2,2, 1, 2, 0, 4, 0.00,60.00,Monday
135,57609860.1137362
3420,57609860.1137362
3738,6791184.0
2,2, 1, 2, 0, 5, 0.00,60.00,Monday
135,57609860.1137362
3420,57609860.1137362
3738,6791184.0
2,2, 1, 2, 0, 6, 0.00,60.00,Monday
135,57609860.1137362
3420,57609860.1137362
3738,6791184.0
2,2, 1, 2, 0, 7, 0.00,60.00,Monday
135,127996825.63454857
3420,127996825.63454857
3738,6791184.0
2,2, 1, 2, 0, 8, 0.00,60.00,Monday
135,215776918.25572556
3420,215776918.25572553
3738,138020718.205081
2,2, 1, 2, 0, 9, 0.00,60.00,Monday
135,308779831.98790205
3420,308779831.98790205
3738,82873177.66038454
2,2, 1, 2, 0,10, 0.00,60.00,Monday
135,272391633.6877966
3420,272391633.68779653
3738,53951717.89646106
2,2, 1, 2, 0,11, 0.00,60.00,Monday
135,270626858.73905873
3420,270626858.73905873
3738,16290746.029742379
2,2, 1, 2, 0,12, 0.00,60.00,Monday
135,289695713.59204376
3420,289695713.59204376
3738,20876788.629584327
2,2, 1, 2, 0,13, 0.00,60.00,Monday
135,291132855.59700644
3420,291132855.59700644
3738,31334466.06780298
2,2, 1, 2, 0,14, 0.00,60.00,Monday
135,308021486.08789706
3420,308021486.08789706
3738,26165957.600102253
2,2, 1, 2, 0,15, 0.00,60.00,Monday
135,301222934.61526537
3420,301222934.6152653
3738,16608219.527592774
2,2, 1, 2, 0,16, 0.00,60.00,Monday
135,306260640.67507416
3420,306260640.67507416
3738,19132384.55082509
2,2, 1, 2, 0,17, 0.00,60.00,Monday
135,303775473.3403636
3420,303775473.34036356
3738,20696667.15605069
2,2, 1, 2, 0,18, 0.00,60.00,Monday
135,238144633.47194412
3420,238144633.4719441
3738,19995254.898005724
2,2, 1, 2, 0,19, 0.00,60.00,Monday
135,130915817.59055667
3420,130915817.59055667
3738,46965666.73843971
2,2, 1, 2, 0,20, 0.00,60.00,Monday
135,114591120.3768551
3420,114591120.3768551
3738,60485811.603654675
2,2, 1, 2, 0,21, 0.00,60.00,Monday
135,105863576.09982648
3420,105863576.09982648
3738,74237317.72791636
2,2, 1, 2, 0,22, 0.00,60.00,Monday
135,103011114.57527736
3420,103011114.57527736
3738,75836107.61545125
2,2, 1, 2, 0,23, 0.00,60.00,Monday
135,77772390.65670998
3420,77772390.65670998
3738,6791184.0
2,2, 1, 2, 0,24, 0.00,60.00,Monday
135,72442274.24247962
3420,72442274.24247962
3738,6791184.0
2,3, 1, 3, 0, 1, 0.00,60.00,Tuesday
135,57996196.7332391
3420,57996196.7332391
3738,6791184.0
2,3, 1, 3, 0, 2, 0.00,60.00,Tuesday
135,57609860.1137362
3420,57609860.1137362
3738,6791184.0
2,3, 1, 3, 0, 3, 0.00,60.00,Tuesday
135,57609860.1137362
3420,57609860.1137362
3738,6791184.0
2,3, 1, 3, 0, 4, 0.00,60.00,Tuesday
135,57609860.1137362
3420,57609860.1137362
3738,6791184.0
2,3, 1, 3, 0, 5, 0.00,60.00,Tuesday
135,57609860.1137362
3420,57609860.1137362
3738,6791184.0
2,3, 1, 3, 0, 6, 0.00,60.00,Tuesday
135,57609860.1137362
3420,57609860.1137362
3738,6791184.0
2,3, 1, 3, 0, 7, 0.00,60.00,Tuesday
135,106931257.37472215
3420,106931257.37472212
3738,6791184.0
2,3, 1, 3, 0, 8, 0.00,60.00,Tuesday
135,184734841.1423446
3420,184734841.1423446
3738,120832959.7297068
2,3, 1, 3, 0, 9, 0.00,60.00,Tuesday
135,312265575.62436616
3420,312265575.62436616
3738,68892671.80928904
2,3, 1, 3, 0,10, 0.00,60.00,Tuesday
135,279812349.24392164
3420,279812349.24392164
3738,27777781.23698724
2,3, 1, 3, 0,11, 0.00,60.00,Tuesday
135,278334900.0313619
3420,278334900.0313619
3738,9295933.261404604
2,3, 1, 3, 0,12, 0.00,60.00,Tuesday
135,290684622.63813865
3420,290684622.63813865
3738,23542259.622301124
2,3, 1, 3, 0,13, 0.00,60.00,Tuesday
135,290073427.60944575
3420,290073427.60944575
3738,31314670.33408197
2,3, 1, 3, 0,14, 0.00,60.00,Tuesday
135,311174944.21262676
3420,311174944.21262676
3738,26173987.99966827
2,3, 1, 3, 0,15, 0.00,60.00,Tuesday
135,304966823.9567958
3420,304966823.95679575
3738,20136318.258841217
2,3, 1, 3, 0,16, 0.00,60.00,Tuesday
135,309054752.76813424
3420,309054752.7681342
3738,15643327.510827746
2,3, 1, 3, 0,17, 0.00,60.00,Tuesday
135,309940042.67176265
3420,309940042.67176265
3738,20680908.056054913
2,3, 1, 3, 0,18, 0.00,60.00,Tuesday
135,242680258.7493111
3420,242680258.7493111
3738,16251871.944199989
2,3, 1, 3, 0,19, 0.00,60.00,Tuesday
135,132069713.17156494
3420,132069713.17156494
3738,26106541.95556266
2,3, 1, 3, 0,20, 0.00,60.00,Tuesday
135,113569604.38930234
3420,113569604.38930234
3738,44462398.210499495
2,3, 1, 3, 0,21, 0.00,60.00,Tuesday
135,102910895.06207252
3420,102910895.06207252
3738,53926673.13748605
2,3, 1, 3, 0,22, 0.00,60.00,Tuesday
135,98770175.473992
3420,98770175.47399203
3738,83388411.44147202
2,3, 1, 3, 0,23, 0.00,60.00,Tuesday
135,77772390.65670998
3420,77772390.65670998
3738,6791184.0
2,3, 1, 3, 0,24, 0.00,60.00,Tuesday
135,72442274.24247962
3420,72442274.24247962
3738,6791184.0
2,4, 1, 4, 0, 1, 0.00,60.00,Wednesday
135,57996196.7332391
3420,57996196.7332391
3738,6791184.0
2,4, 1, 4, 0, 2, 0.00,60.00,Wednesday
135,57609860.1137362
3420,57609860.1137362
3738,6791184.0
2,4, 1, 4, 0, 3, 0.00,60.00,Wednesday
135,57609860.1137362
3420,57609860.1137362
3738,6791184.0
2,4, 1, 4, 0, 4, 0.00,60.00,Wednesday
135,57609860.1137362
3420,57609860.1137362
3738,6791184.0
2,4, 1, 4, 0, 5, 0.00,60.00,Wednesday
135,57609860.1137362
3420,57609860.1137362
3738,6791184.0
2,4, 1, 4, 0, 6, 0.00,60.00,Wednesday
135,57609860.1137362
3420,57609860.1137362
3738,6791184.0
2,4, 1, 4, 0, 7, 0.00,60.00,Wednesday
135,103755454.93082415
3420,103755454.93082415
3738,6791184.0
2,4, 1, 4, 0, 8, 0.00,60.00,Wednesday
135,184491004.4643848
3420,184491004.4643848
3738,139683752.67577988
2,4, 1, 4, 0, 9, 0.00,60.00,Wednesday
135,309257276.77714854
3420,309257276.7771486
3738,83095029.78652705
2,4, 1, 4, 0,10, 0.00,60.00,Wednesday
135,272185113.924669
3420,272185113.924669
3738,54652377.40591665
2,4, 1, 4, 0,11, 0.00,60.00,Wednesday
135,266550562.08486056
3420,266550562.0848605
3738,34899162.16140272
2,4, 1, 4, 0,12, 0.00,60.00,Wednesday
135,281292242.9374631
3420,281292242.937463
3738,23607985.38142342
2,4, 1, 4, 0,13, 0.00,60.00,Wednesday
135,285973572.2964015
3420,285973572.29640144
3738,31348798.230013758
2,4, 1, 4, 0,14, 0.00,60.00,Wednesday
135,292517489.6756735
3420,292517489.6756735
3738,26188383.070569854
2,4, 1, 4, 0,15, 0.00,60.00,Wednesday
135,278936139.3508474
3420,278936139.3508474
3738,20127398.59969132
2,4, 1, 4, 0,16, 0.00,60.00,Wednesday
135,276955145.5425564
3420,276955145.54255635
3738,15653031.314340789
2,4, 1, 4, 0,17, 0.00,60.00,Wednesday
135,295961521.3481208
3420,295961521.34812075
3738,25318407.256185487
2,4, 1, 4, 0,18, 0.00,60.00,Wednesday
135,249790251.11624223
3420,249790251.11624217
3738,14864476.667762557
2,4, 1, 4, 0,19, 0.00,60.00,Wednesday
135,132103039.86723197
3420,132103039.86723197
3738,28501881.551320106
2,4, 1, 4, 0,20, 0.00,60.00,Wednesday
135,113569604.38930234
3420,113569604.38930234
3738,41762766.323415086
2,4, 1, 4, 0,21, 0.00,60.00,Wednesday
135,102910895.06207252
3420,102910895.06207252
3738,55301881.79344201
2,4, 1, 4, 0,22, 0.00,60.00,Wednesday
135,98267997.61519502
3420,98267997.61519504
3738,67012577.12525496
2,4, 1, 4, 0,23, 0.00,60.00,Wednesday
135,77772390.65670998
3420,77772390.65670998
3738,6791184.0
2,4, 1, 4, 0,24, 0.00,60.00,Wednesday
135,72442274.24247962
3420,72442274.24247962
3738,6791184.0
2,5, 1, 5, 0, 1, 0.00,60.00,Thursday
135,57996196.7332391
3420,57996196.7332391
3738,6791184.0
2,5, 1, 5, 0, 2, 0.00,60.00,Thursday
135,57609860.1137362
3420,57609860.1137362
3738,6791184.0
2,5, 1, 5, 0, 3, 0.00,60.00,Thursday
135,57609860.1137362
3420,57609860.1137362
3738,6791184.0
2,5, 1, 5, 0, 4, 0.00,60.00,Thursday
135,57609860.1137362
3420,57609860.1137362
3738,6791184.0
2,5, 1, 5, 0, 5, 0.00,60.00,Thursday
135,57609860.1137362
3420,57609860.1137362
3738,6791184.0
2,5, 1, 5, 0, 6, 0.00,60.00,Thursday
135,57609860.1137362
3420,57609860.1137362
3738,6791184.0
2,5, 1, 5, 0, 7, 0.00,60.00,Thursday
135,97735623.67105103
3420,97735623.67105103
3738,6791184.0
2,5, 1, 5, 0, 8, 0.00,60.00,Thursday
135,173100768.07654965
3420,173100768.07654962
3738,110910429.20140871
2,5, 1, 5, 0, 9, 0.00,60.00,Thursday
135,311205020.1220606
3420,311205020.12206054
3738,58843916.725474425
2,5, 1, 5, 0,10, 0.00,60.00,Thursday
135,280658060.50632495
3420,280658060.50632495
3738,15412325.557579566
2,5, 1, 5, 0,11, 0.00,60.00,Thursday
135,279876095.09554434
3420,279876095.09554434
3738,11332836.2691178
2,5, 1, 5, 0,12, 0.00,60.00,Thursday
135,292294718.72825456
3420,292294718.72825456
3738,20890598.102329075
2,5, 1, 5, 0,13, 0.00,60.00,Thursday
135,295353791.6656956
3420,295353791.6656956
3738,31321004.3765677
2,5, 1, 5, 0,14, 0.00,60.00,Thursday
135,319223258.974726
3420,319223258.97472596
3738,26189196.296384312
2,5, 1, 5, 0,15, 0.00,60.00,Thursday
135,312672400.9007701
3420,312672400.90077007
3738,20204811.237831824
2,5, 1, 5, 0,16, 0.00,60.00,Thursday
135,316597340.3147546
3420,316597340.3147545
3738,15641997.033621151
2,5, 1, 5, 0,17, 0.00,60.00,Thursday
135,319340311.9371281
3420,319340311.93712807
3738,25321918.178624112
2,5, 1, 5, 0,18, 0.00,60.00,Thursday
135,245783236.8655186
3420,245783236.8655186
3738,11104752.592050675
2,5, 1, 5, 0,19, 0.00,60.00,Thursday
135,132919744.28767565
3420,132919744.28767565
3738,13944577.741628896
2,5, 1, 5, 0,20, 0.00,60.00,Thursday
135,113569604.38930234
3420,113569604.38930234
3738,28354982.546491858
2,5, 1, 5, 0,21, 0.00,60.00,Thursday
135,102910895.06207252
3420,102910895.06207252
3738,39815667.571056575
2,5, 1, 5, 0,22, 0.00,60.00,Thursday
135,98267997.61519502
3420,98267997.61519504
3738,53897902.32273879
2,5, 1, 5, 0,23, 0.00,60.00,Thursday
135,77772390.65670998
3420,77772390.65670998
3738,6791184.0
2,5, 1, 5, 0,24, 0.00,60.00,Thursday
135,72442274.24247962
3420,72442274.24247962
3738,6791184.0
2,6, 1, 6, 0, 1, 0.00,60.00,Friday
135,57996196.7332391
3420,57996196.7332391
3738,6791184.0
2,6, 1, 6, 0, 2, 0.00,60.00,Friday
135,57609860.1137362
3420,57609860.1137362
3738,6791184.0
2,6, 1, 6, 0, 3, 0.00,60.00,Friday
135,57609860.1137362
3420,57609860.1137362
3738,6791184.0
2,6, 1, 6, 0, 4, 0.00,60.00,Friday
135,57609860.1137362
3420,57609860.1137362
3738,6791184.0
2,6, 1, 6, 0, 5, 0.00,60.00,Friday
135,57609860.1137362
3420,57609860.1137362
3738,6791184.0
2,6, 1, 6, 0, 6, 0.00,60.00,Friday
135,57609860.1137362
3420,57609860.1137362
3738,6791184.0
2,6, 1, 6, 0, 7, 0.00,60.00,Friday
135,100874498.80210993
3420,100874498.80210996
3738,6791184.0
2,6, 1, 6, 0, 8, 0.00,60.00,Friday
135,185012151.70365253
3420,185012151.7036525
3738,115173439.34392655
2,6, 1, 6, 0, 9, 0.00,60.00,Friday
135,311864635.2464785
3420,311864635.2464785
3738,82718883.24284047
2,6, 1, 6, 0,10, 0.00,60.00,Friday
135,270760642.5463952
3420,270760642.5463952
3738,75199093.02771139
2,6, 1, 6, 0,11, 0.00,60.00,Friday
135,263574249.679065
3420,263574249.679065
3738,64362356.05111039
2,6, 1, 6, 0,12, 0.00,60.00,Friday
135,282489219.14205617
3420,282489219.1420561
3738,40890408.34959051
2,6, 1, 6, 0,13, 0.00,60.00,Friday
135,291679706.9357716
3420,291679706.9357716
3738,28107688.715244368
2,6, 1, 6, 0,14, 0.00,60.00,Friday
135,308671350.3757951
3420,308671350.3757951
3738,27356335.104887538
2,6, 1, 6, 0,15, 0.00,60.00,Friday
135,301530339.69325376
3420,301530339.69325376
3738,19100898.233120557
2,6, 1, 6, 0,16, 0.00,60.00,Friday
135,304696593.3533642
3420,304696593.3533641
3738,15649369.115394212
2,6, 1, 6, 0,17, 0.00,60.00,Friday
135,309493379.4927642
3420,309493379.4927641
3738,25324634.014026977
2,6, 1, 6, 0,18, 0.00,60.00,Friday
135,252005436.93270802
3420,252005436.93270805
3738,46958803.33053042
2,6, 1, 6, 0,19, 0.00,60.00,Friday
135,131486257.17165443
3420,131486257.17165443
3738,71752465.51635388
2,6, 1, 6, 0,20, 0.00,60.00,Friday
135,113569604.38930234
3420,113569604.38930234
3738,75354054.68499231
2,6, 1, 6, 0,21, 0.00,60.00,Friday
135,103721887.6060653
3420,103721887.6060653
3738,92943327.67809422
2,6, 1, 6, 0,22, 0.00,60.00,Friday
135,100540602.12163739
3420,100540602.1216374
3738,91981575.97081652
2,6, 1, 6, 0,23, 0.00,60.00,Friday
135,77772390.65670998
3420,77772390.65670998
3738,6791184.0
2,6, 1, 6, 0,24, 0.00,60.00,Friday
135,72442274.24247962
3420,72442274.24247962
3738,6791184.0
2,7, 1, 7, 0, 1, 0.00,60.00,Saturday
135,46745513.81922844
3420,46745513.81922843
3738,6791184.0
2,7, 1, 7, 0, 2, 0.00,60.00,Saturday
135,46359235.70955593
3420,46359235.709555924
3738,6791184.0
2,7, 1, 7, 0, 3, 0.00,60.00,Saturday
135,46359235.70955593
3420,46359235.709555924
3738,6791184.0
2,7, 1, 7, 0, 4, 0.00,60.00,Saturday
135,46359235.70955593
3420,46359235.709555924
3738,6791184.0
2,7, 1, 7, 0, 5, 0.00,60.00,Saturday
135,46359235.70955593
3420,46359235.709555924
3738,6791184.0
2,7, 1, 7, 0, 6, 0.00,60.00,Saturday
135,46359235.70955593
3420,46359235.709555924
3738,6791184.0
2,7, 1, 7, 0, 7, 0.00,60.00,Saturday
135,110561280.09813781
3420,110561280.09813783
3738,6791184.0
2,7, 1, 7, 0, 8, 0.00,60.00,Saturday
135,138475748.02109048
3420,138475748.02109048
3738,126956145.40199202
2,7, 1, 7, 0, 9, 0.00,60.00,Saturday
135,132874862.16839139
3420,132874862.16839136
3738,109118163.61979377
2,7, 1, 7, 0,10, 0.00,60.00,Saturday
135,135156395.79349858
3420,135156395.7934986
3738,95337645.40089162
2,7, 1, 7, 0,11, 0.00,60.00,Saturday
135,128182600.25727639
3420,128182600.25727639
3738,67089820.411321625
2,7, 1, 7, 0,12, 0.00,60.00,Saturday
135,139054610.5584887
3420,139054610.5584887
3738,28275576.95768001
2,7, 1, 7, 0,13, 0.00,60.00,Saturday
135,98688069.02274138
3420,98688069.02274138
3738,17217756.539653774
2,7, 1, 7, 0,14, 0.00,60.00,Saturday
135,86592683.98929238
3420,86592683.98929238
3738,17765234.869882587
2,7, 1, 7, 0,15, 0.00,60.00,Saturday
135,80777988.06353001
3420,80777988.06353001
3738,15065748.739102047
2,7, 1, 7, 0,16, 0.00,60.00,Saturday
135,76233398.28453368
3420,76233398.28453368
3738,21625761.35767615
2,7, 1, 7, 0,17, 0.00,60.00,Saturday
135,78790177.19710016
3420,78790177.19710016
3738,30446628.165137175
2,7, 1, 7, 0,18, 0.00,60.00,Saturday
135,83077160.33306564
3420,83077160.33306564
3738,45590321.97125885
2,7, 1, 7, 0,19, 0.00,60.00,Saturday
135,66276703.53612528
3420,66276703.53612528
3738,6791184.0
2,7, 1, 7, 0,20, 0.00,60.00,Saturday
135,49290893.81922844
3420,49290893.81922844
3738,6791184.0
2,7, 1, 7, 0,21, 0.00,60.00,Saturday
135,48904615.70955593
3420,48904615.70955593
3738,6791184.0
2,7, 1, 7, 0,22, 0.00,60.00,Saturday
135,48904615.70955593
3420,48904615.70955593
3738,6791184.0
2,7, 1, 7, 0,23, 0.00,60.00,Saturday
135,48904615.70955593
3420,48904615.70955593
3738,6791184.0
2,7, 1, 7, 0,24, 0.00,60.00,Saturday
135,48904615.70955593
3420,48904615.70955593
3738,6791184.0
2,8, 1, 8, 0, 1, 0.00,60.00,Sunday
135,46359235.70955593
3420,46359235.709555924
3738,6791184.0
2,8, 1, 8, 0, 2, 0.00,60.00,Sunday
135,46359235.70955593
3420,46359235.709555924
3738,6791184.0
2,8, 1, 8, 0, 3, 0.00,60.00,Sunday
135,46359235.70955593
3420,46359235.709555924
3738,6791184.0
2,8, 1, 8, 0, 4, 0.00,60.00,Sunday
135,46359235.70955593
3420,46359235.709555924
3738,6791184.0
2,8, 1, 8, 0, 5, 0.00,60.00,Sunday
135,46359235.70955593
3420,46359235.709555924
3738,6791184.0
2,8, 1, 8, 0, 6, 0.00,60.00,Sunday
135,46359235.70955593
3420,46359235.709555924
3738,6791184.0
2,8, 1, 8, 0, 7, 0.00,60.00,Sunday
135,66032185.73006148
3420,66032185.73006148
3738,6791184.0
2,8, 1, 8, 0, 8, 0.00,60.00,Sunday
135,53323580.330645084
3420,53323580.330645084
3738,6791184.0
2,8, 1, 8, 0, 9, 0.00,60.00,Sunday
135,46344166.24829911
3420,46344166.24829911
3738,6791184.0
2,8, 1, 8, 0,10, 0.00,60.00,Sunday
135,46288812.51597283
3420,46288812.51597283
3738,6791184.0
2,8, 1, 8, 0,11, 0.00,60.00,Sunday
135,47492002.56196327
3420,47492002.56196327
3738,6791184.0
2,8, 1, 8, 0,12, 0.00,60.00,Sunday
135,51535164.807517484
3420,51535164.807517484
3738,6791184.0
2,8, 1, 8, 0,13, 0.00,60.00,Sunday
135,54258311.31176117
3420,54258311.31176117
3738,6791184.0
2,8, 1, 8, 0,14, 0.00,60.00,Sunday
135,53722615.64921588
3420,53722615.64921588
3738,6791184.0
2,8, 1, 8, 0,15, 0.00,60.00,Sunday
135,54373590.84400572
3420,54373590.84400572
3738,6791184.0
2,8, 1, 8, 0,16, 0.00,60.00,Sunday
135,54742900.692130476
3420,54742900.692130506
3738,6791184.0
2,8, 1, 8, 0,17, 0.00,60.00,Sunday
135,49567855.1474222
3420,49567855.14742221
3738,6791184.0
2,8, 1, 8, 0,18, 0.00,60.00,Sunday
135,66276671.30593526
3420,66276671.30593526
3738,6791184.0
2,8, 1, 8, 0,19, 0.00,60.00,Sunday
135,57105773.81922845
3420,57105773.81922844
3738,6791184.0
2,8, 1, 8, 0,20, 0.00,60.00,Sunday
135,48904615.70955593
3420,48904615.70955593
3738,6791184.0
2,8, 1, 8, 0,21, 0.00,60.00,Sunday
135,48904615.70955593
3420,48904615.70955593
3738,6791184.0
2,8, 1, 8, 0,22, 0.00,60.00,Sunday
135,48904615.70955593
3420,48904615.70955593
3738,6791184.0
2,8, 1, 8, 0,23, 0.00,60.00,Sunday
135,48904615.70955593
3420,48904615.70955593
3738,6791184.0
2,8, 1, 8, 0,24, 0.00,60.00,Sunday
135,48904615.70955593
3420,48904615.70955593
3738,6791184.0
2,9, 1, 9, 0, 1, 0.00,60.00,Monday
135,57609860.1137362
3420,57609860.1137362
3738,6791184.0
2,9, 1, 9, 0, 2, 0.00,60.00,Monday
135,57609860.1137362
3420,57609860.1137362
3738,6791184.0
2,9, 1, 9, 0, 3, 0.00,60.00,Monday
135,57609860.1137362
3420,57609860.1137362
3738,6791184.0
2,9, 1, 9, 0, 4, 0.00,60.00,Monday
135,57609860.1137362
3420,57609860.1137362
3738,6791184.0
2,9, 1, 9, 0, 5, 0.00,60.00,Monday
135,57609860.1137362
3420,57609860.1137362
3738,6791184.0
2,9, 1, 9, 0, 6, 0.00,60.00,Monday
135,57609860.1137362
3420,57609860.1137362
3738,6791184.0
2,9, 1, 9, 0, 7, 0.00,60.00,Monday
135,122720127.80896935
3420,122720127.80896935
3738,6791184.0
2,9, 1, 9, 0, 8, 0.00,60.00,Monday
135,209912338.35695308
3420,209912338.35695308
3738,109078766.57343093
2,9, 1, 9, 0, 9, 0.00,60.00,Monday
135,315182095.47138137
3420,315182095.47138137
3738,61962566.46957953
2,9, 1, 9, 0,10, 0.00,60.00,Monday
135,278020574.2974082
3420,278020574.29740816
3738,29012765.29708825
2,9, 1, 9, 0,11, 0.00,60.00,Monday
135,275932502.5382039
3420,275932502.53820384
3738,7483330.322612528
2,9, 1, 9, 0,12, 0.00,60.00,Monday
135,289923123.84404725
3420,289923123.8440471
3738,20903859.31998054
2,9, 1, 9, 0,13, 0.00,60.00,Monday
135,297934060.6786091
3420,297934060.6786091
3738,31355574.688312326
2,9, 1, 9, 0,14, 0.00,60.00,Monday
135,317288905.3308715
3420,317288905.33087146
3738,26214346.644273534
2,9, 1, 9, 0,15, 0.00,60.00,Monday
135,312418435.5945761
3420,312418435.594576
3738,20131556.32601346
2,9, 1, 9, 0,16, 0.00,60.00,Monday
135,320057696.70395756
3420,320057696.70395756
3738,15659355.217087299
2,9, 1, 9, 0,17, 0.00,60.00,Monday
135,326340143.3319681
3420,326340143.3319681
3738,25336257.606248036
2,9, 1, 9, 0,18, 0.00,60.00,Monday
135,244074010.05698776
3420,244074010.05698773
3738,11090417.583026918
2,9, 1, 9, 0,19, 0.00,60.00,Monday
135,132157929.71944454
3420,132157929.71944454
3738,15061029.914903902
2,9, 1, 9, 0,20, 0.00,60.00,Monday
135,113569604.38930234
3420,113569604.38930234
3738,21168779.668942653
2,9, 1, 9, 0,21, 0.00,60.00,Monday
135,102910895.06207252
3420,102910895.06207252
3738,15537650.265912112
2,9, 1, 9, 0,22, 0.00,60.00,Monday
135,98975532.64155723
3420,98975532.64155725
3738,23525968.550772663
2,9, 1, 9, 0,23, 0.00,60.00,Monday
135,77772390.65670998
3420,77772390.65670998
3738,6791184.0
2,9, 1, 9, 0,24, 0.00,60.00,Monday
135,72442274.24247962
3420,72442274.24247962
3738,6791184.0
2,10, 1,10, 0, 1, 0.00,60.00,Tuesday
135,57996196.7332391
3420,57996196.7332391
3738,6791184.0
2,10, 1,10, 0, 2, 0.00,60.00,Tuesday
135,57609860.1137362
3420,57609860.1137362
3738,6791184.0
2,10, 1,10, 0, 3, 0.00,60.00,Tuesday
135,57609860.1137362
3420,57609860.1137362
3738,6791184.0
2,10, 1,10, 0, 4, 0.00,60.00,Tuesday
135,57609860.1137362
3420,57609860.1137362
3738,6791184.0
2,10, 1,10, 0, 5, 0.00,60.00,Tuesday
135,57609860.1137362
3420,57609860.1137362
3738,6791184.0
2,10, 1,10, 0, 6, 0.00,60.00,Tuesday
135,57609860.1137362
3420,57609860.1137362
3738,6791184.0
2,10, 1,10, 0, 7, 0.00,60.00,Tuesday
135,107275164.54995397
3420,107275164.54995397
3738,6791184.0
2,10, 1,10, 0, 8, 0.00,60.00,Tuesday
135,184433092.0089416
3420,184433092.0089416
3738,121381896.73438385
2,10, 1,10, 0, 9, 0.00,60.00,Tuesday
135,309135229.0887638
3420,309135229.08876383
3738,75601017.29570433
2,10, 1,10, 0,10, 0.00,60.00,Tuesday
135,273344762.5490332
3420,273344762.54903316
3738,49769588.532230236
2,10, 1,10, 0,11, 0.00,60.00,Tuesday
135,266258473.0631994
3420,266258473.06319937
3738,38105523.799344935
2,10, 1,10, 0,12, 0.00,60.00,Tuesday
135,276203118.07025576
3420,276203118.07025576
3738,45882879.00282964
2,10, 1,10, 0,13, 0.00,60.00,Tuesday
135,284493260.3056244
3420,284493260.30562437
3738,31744836.855386972
2,10, 1,10, 0,14, 0.00,60.00,Tuesday
135,292693543.66365063
3420,292693543.66365063
3738,30675477.387109797
2,10, 1,10, 0,15, 0.00,60.00,Tuesday
135,285779202.1747524
3420,285779202.1747524
3738,16065645.444828607
2,10, 1,10, 0,16, 0.00,60.00,Tuesday
135,291345539.7534325
3420,291345539.7534325
3738,17413364.9945082
2,10, 1,10, 0,17, 0.00,60.00,Tuesday
135,297714241.73670304
3420,297714241.73670304
3738,23503076.109300043
2,10, 1,10, 0,18, 0.00,60.00,Tuesday
135,246788650.51482973
3420,246788650.5148297
3738,20916985.167421646
2,10, 1,10, 0,19, 0.00,60.00,Tuesday
135,132021587.58495334
3420,132021587.58495334
3738,51408925.75747035
2,10, 1,10, 0,20, 0.00,60.00,Tuesday
135,113569604.38930234
3420,113569604.38930234
3738,60234402.352899894
2,10, 1,10, 0,21, 0.00,60.00,Tuesday
135,102958842.57483813
3420,102958842.57483813
3738,74106707.72628914
2,10, 1,10, 0,22, 0.00,60.00,Tuesday
135,99795461.84539911
3420,99795461.84539913
3738,91053033.43497445
2,10, 1,10, 0,23, 0.00,60.00,Tuesday
135,77772390.65670998
3420,77772390.65670998
3738,6791184.0
2,10, 1,10, 0,24, 0.00,60.00,Tuesday
135,72442274.24247962
3420,72442274.24247962
3738,6791184.0
2,11, 1,11, 0, 1, 0.00,60.00,Wednesday
135,57996196.7332391
3420,57996196.7332391
3738,6791184.0
2,11, 1,11, 0, 2, 0.00,60.00,Wednesday
135,57609860.1137362
3420,57609860.1137362
3738,6791184.0
2,11, 1,11, 0, 3, 0.00,60.00,Wednesday
135,57609860.1137362
3420,57609860.1137362
3738,6791184.0
2,11, 1,11, 0, 4, 0.00,60.00,Wednesday
135,57609860.1137362
3420,57609860.1137362
3738,6791184.0
2,11, 1,11, 0, 5, 0.00,60.00,Wednesday
135,57609860.1137362
3420,57609860.1137362
3738,6791184.0
2,11, 1,11, 0, 6, 0.00,60.00,Wednesday
135,57609860.1137362
3420,57609860.1137362
3738,6791184.0
2,11, 1,11, 0, 7, 0.00,60.00,Wednesday
135,104024925.53076589
3420,104024925.53076589
3738,6791184.0
2,11, 1,11, 0, 8, 0.00,60.00,Wednesday
135,180772871.17492226
3420,180772871.17492223
3738,81641196.84945355
2,11, 1,11, 0, 9, 0.00,60.00,Wednesday
135,302582557.9245819
3420,302582557.9245819
3738,57055836.94400804
2,11, 1,11, 0,10, 0.00,60.00,Wednesday
135,267765490.85886365
3420,267765490.85886365
3738,40787421.00832832
2,11, 1,11, 0,11, 0.00,60.00,Wednesday
135,262594082.44346914
3420,262594082.4434691
3738,15110383.525947815
2,11, 1,11, 0,12, 0.00,60.00,Wednesday
135,271448695.8103553
3420,271448695.81035525
3738,25914274.868399218
2,11, 1,11, 0,13, 0.00,60.00,Wednesday
135,273235841.7143915
3420,273235841.7143915
3738,36138035.72946369
2,11, 1,11, 0,14, 0.00,60.00,Wednesday
135,274369659.91187716
3420,274369659.9118771
3738,27460156.289822176
2,11, 1,11, 0,15, 0.00,60.00,Wednesday
135,260313015.68425182
3420,260313015.68425173
3738,20142574.008628856
2,11, 1,11, 0,16, 0.00,60.00,Wednesday
135,260594704.0456355
3420,260594704.04563546
3738,21949632.680720363
2,11, 1,11, 0,17, 0.00,60.00,Wednesday
135,277666600.44494
3420,277666600.4449399
3738,50607457.371310614
2,11, 1,11, 0,18, 0.00,60.00,Wednesday
135,242038713.4407013
3420,242038713.4407013
3738,56234580.0501211
2,11, 1,11, 0,19, 0.00,60.00,Wednesday
135,131580560.02866739
3420,131580560.02866742
3738,81435439.60286798
2,11, 1,11, 0,20, 0.00,60.00,Wednesday
135,113569604.38930234
3420,113569604.38930234
3738,91103845.6234593
2,11, 1,11, 0,21, 0.00,60.00,Wednesday
135,103785866.96348575
3420,103785866.96348575
3738,90802027.62346604
2,11, 1,11, 0,22, 0.00,60.00,Wednesday
135,101117227.083429
3420,101117227.08342901
3738,101743460.34448469
2,11, 1,11, 0,23, 0.00,60.00,Wednesday
135,77772390.65670998
3420,77772390.65670998
3738,6791184.0
2,11, 1,11, 0,24, 0.00,60.00,Wednesday
135,72442274.24247962
3420,72442274.24247962
3738,6791184.0
2,12, 1,12, 0, 1, 0.00,60.00,Thursday
135,57996196.7332391
3420,57996196.7332391
3738,6791184.0
2,12, 1,12, 0, 2, 0.00,60.00,Thursday
135,57609860.1137362
3420,57609860.1137362
3738,6791184.0
2,12, 1,12, 0, 3, 0.00,60.00,Thursday
135,57609860.1137362
3420,57609860.1137362
3738,6791184.0
2,12, 1,12, 0, 4, 0.00,60.00,Thursday
135,57609860.1137362
3420,57609860.1137362
3738,6791184.0
2,12, 1,12, 0, 5, 0.00,60.00,Thursday
135,57609860.1137362
3420,57609860.1137362
3738,6791184.0
2,12, 1,12, 0, 6, 0.00,60.00,Thursday
135,57609860.1137362
3420,57609860.1137362
3738,6791184.0
2,12, 1,12, 0, 7, 0.00,60.00,Thursday
135,108388725.29131542
3420,108388725.29131544
3738,6791184.0
2,12, 1,12, 0, 8, 0.00,60.00,Thursday
135,187268431.95474124
3420,187268431.95474124
3738,130459533.2908725
2,12, 1,12, 0, 9, 0.00,60.00,Thursday
135,310514640.9742321
3420,310514640.9742321
3738,85554904.36325285
2,12, 1,12, 0,10, 0.00,60.00,Thursday
135,269762663.2071653
3420,269762663.2071653
3738,73180363.77718188
2,12, 1,12, 0,11, 0.00,60.00,Thursday
135,263705822.14336365
3420,263705822.1433636
3738,56297615.25324687
2,12, 1,12, 0,12, 0.00,60.00,Thursday
135,275861008.4930491
3420,275861008.4930491
3738,49473382.61916123
2,12, 1,12, 0,13, 0.00,60.00,Thursday
135,292385803.42177904
3420,292385803.42177904
3738,41683195.366489865
2,12, 1,12, 0,14, 0.00,60.00,Thursday
135,286666100.0704944
3420,286666100.0704944
3738,37059857.444009975
2,12, 1,12, 0,15, 0.00,60.00,Thursday
135,271044427.73673964
3420,271044427.7367396
3738,18754081.11485693
2,12, 1,12, 0,16, 0.00,60.00,Thursday
135,270857591.4305879
3420,270857591.4305879
3738,26264755.51496232
2,12, 1,12, 0,17, 0.00,60.00,Thursday
135,289435940.5321609
3420,289435940.5321609
3738,33778532.55448797
2,12, 1,12, 0,18, 0.00,60.00,Thursday
135,251183080.14053166
3420,251183080.14053163
3738,49528821.04406917
2,12, 1,12, 0,19, 0.00,60.00,Thursday
135,132397414.40340325
3420,132397414.40340325
3738,73113583.17600578
2,12, 1,12, 0,20, 0.00,60.00,Thursday
135,113569604.38930234
3420,113569604.38930234
3738,71063695.96006823
2,12, 1,12, 0,21, 0.00,60.00,Thursday
135,103533132.2966657
3420,103533132.2966657
3738,74807270.15495187
2,12, 1,12, 0,22, 0.00,60.00,Thursday
135,100564164.92849407
3420,100564164.92849407
3738,77458750.01772816
2,12, 1,12, 0,23, 0.00,60.00,Thursday
135,77772390.65670998
3420,77772390.65670998
3738,6791184.0
2,12, 1,12, 0,24, 0.00,60.00,Thursday
135,72442274.24247962
3420,72442274.24247962
3738,6791184.0
2,13, 1,13, 0, 1, 0.00,60.00,Friday
135,57996196.7332391
3420,57996196.7332391
3738,6791184.0