Program Version,EnergyPlus, Version 9.6.0-f420c06a69, YMD=2022.07.16 15:12
1,5,Environment Title[],Latitude[deg],Longitude[deg],Time Zone[],Elevation[m]
2,8,Day of Simulation[],Month[],Day of Month[],DST Indicator[1=yes 0=no],Hour[],StartMinute[],EndMinute[],DayType
3,5,Cumulative Day of Simulation[],Month[],Day of Month[],DST Indicator[1=yes 0=no],DayType  ! When Daily Meters Requested
4,2,Cumulative Days of Simulation[],Month[]  ! When Monthly Meters Requested
5,1,Cumulative Days of Simulation[] ! When Run Period Meters Requested
6,1,Calendar Year of Simulation[] ! When Annual Meters Requested
135,1,Electricity:Facility [J] !Hourly
3420,1,ElectricityNet:Facility [J] !Hourly
3738,1,NaturalGas:Facility [J] !Hourly
End of Data Dictionary
1,RUNPERIOD 1,  35.04,-106.62,  -7.00,1619.00
2,1, 1, 1, 0, 1, 0.00,60.00,Holiday
135,46359074.93593144
3420,46359074.93593143
3738,6791184.0
2,1, 1, 1, 0, 2, 0.00,60.00,Holiday
135,46359235.70955593
3420,46359235.709555924
3738,6791184.0
2,1, 1, 1, 0, 3, 0.00,60.00,Holiday
135,46359235.70955593
3420,46359235.709555924
3738,6791184.0
2,1, 1, 1, 0, 4, 0.00,60.00,Holiday
135,46359235.70955593
3420,46359235.709555924
3738,6791184.0
2,1, 1, 1, 0, 5, 0.00,60.00,Holiday
135,46359235.70955593
3420,46359235.709555924
3738,6791184.0
2,1, 1, 1, 0, 6, 0.00,60.00,Holiday
135,46359235.70955593
3420,46359235.709555924
3738,6791184.0
2,1, 1, 1, 0, 7, 0.00,60.00,Holiday
135,66032185.73006148
3420,66032185.73006148
3738,6791184.0
2,1, 1, 1, 0, 8, 0.00,60.00,Holiday
135,50074623.774579875
3420,50074623.774579875
3738,6791184.0
2,1, 1, 1, 0, 9, 0.00,60.00,Holiday
135,46351708.9331394
3420,46351708.9331394
3738,6791184.0
2,1, 1, 1, 0,10, 0.00,60.00,Holiday
135,46288813.17904917
3420,46288813.179049164
3738,6791184.0
2,1, 1, 1, 0,11, 0.00,60.00,Holiday
135,51149014.50787013
3420,51149014.50787013
3738,6791184.0
2,1, 1, 1, 0,12, 0.00,60.00,Holiday
135,53542591.30173427
3420,53542591.30173427
3738,6791184.0
2,1, 1, 1, 0,13, 0.00,60.00,Holiday
135,54827857.64153222
3420,54827857.64153222
3738,6791184.0
2,1, 1, 1, 0,14, 0.00,60.00,Holiday
135,61196507.52122828
3420,61196507.5212283
3738,6791184.0
2,1, 1, 1, 0,15, 0.00,60.00,Holiday
135,67239153.60782859
3420,67239153.60782859
3738,6791184.0
2,1, 1, 1, 0,16, 0.00,60.00,Holiday
135,64721412.807741076
3420,64721412.80774109
3738,6791184.0
2,1, 1, 1, 0,17, 0.00,60.00,Holiday
135,55473596.479658276
3420,55473596.479658276
3738,6791184.0
2,1, 1, 1, 0,18, 0.00,60.00,Holiday
135,66905826.86107348
3420,66905826.86107348
3738,6791184.0
2,1, 1, 1, 0,19, 0.00,60.00,Holiday
135,57105773.81922845
3420,57105773.81922844
3738,6791184.0
2,1, 1, 1, 0,20, 0.00,60.00,Holiday
135,48904615.70955593
3420,48904615.70955593
3738,6791184.0
2,1, 1, 1, 0,21, 0.00,60.00,Holiday
135,48904615.70955593
3420,48904615.70955593
3738,6791184.0
2,1, 1, 1, 0,22, 0.00,60.00,Holiday
135,48904615.70955593
3420,48904615.70955593
3738,6791184.0
2,1, 1, 1, 0,23, 0.00,60.00,Holiday
135,48904615.70955593
3420,48904615.70955593
3738,6791184.0
2,1, 1, 1, 0,24, 0.00,60.00,Holiday
135,48904615.70955593
3420,48904615.70955593
3738,6791184.0
2,2, 1, 2, 0, 1, 0.00,60.00,Monday
135,57609860.1137362
3420,57609860.1137362
3738,6791184.0
2,2, 1, 2, 0, 2, 0.00,60.00,Monday
135,57609860.1137362
3420,57609860.1137362
3738,6791184.0
2,2, 1, 2, 0, 3, 0.00,60.00,Monday
135,57609860.1137362
3420,57609860.1137362
3738,6791184.0
2,2, 1, 2, 0, 4, 0.00,60.00,Monday
135,57609860.1137362
3420,57609860.1137362
3738,6791184.0
2,2, 1, 2, 0, 5, 0.00,60.00,Monday
135,57609860.1137362
3420,57609860.1137362
3738,6791184.0
2,2, 1, 2, 0, 6, 0.00,60.00,Monday
135,57609860.1137362
3420,57609860.1137362
3738,6791184.0
2,2, 1, 2, 0, 7, 0.00,60.00,Monday
135,127996825.63454857
3420,127996825.63454857
3738,6791184.0
2,2, 1, 2, 0, 8, 0.00,60.00,Monday
135,215776918.25572556
3420,215776918.25572553
3738,138020718.205081
2,2, 1, 2, 0, 9, 0.00,60.00,Monday
135,308779831.98790205
3420,308779831.98790205
3738,82873177.66038454
2,2, 1, 2, 0,10, 0.00,60.00,Monday
135,272391633.6877966
3420,272391633.68779653
3738,53951717.89646106
2,2, 1, 2, 0,11, 0.00,60.00,Monday
135,270626858.73905873
3420,270626858.73905873
3738,16290746.029742379
2,2, 1, 2, 0,12, 0.00,60.00,Monday
135,289695713.59204376
3420,289695713.59204376
3738,20876788.629584327
2,2, 1, 2, 0,13, 0.00,60.00,Monday
135,291132855.59700644
3420,291132855.59700644
3738,31334466.06780298
2,2, 1, 2, 0,14, 0.00,60.00,Monday
135,308021486.08789706
3420,308021486.08789706
3738,26165957.600102253
2,2, 1, 2, 0,15, 0.00,60.00,Monday
135,301222934.61526537
3420,301222934.6152653
3738,16608219.527592774
2,2, 1, 2, 0,16, 0.00,60.00,Monday
135,306260640.67507416
3420,306260640.67507416
3738,19132384.55082509
2,2, 1, 2, 0,17, 0.00,60.00,Monday
135,303775473.3403636
3420,303775473.34036356
3738,20696667.15605069
2,2, 1, 2, 0,18, 0.00,60.00,Monday
135,238144633.47194412
3420,238144633.4719441
3738,19995254.898005724
2,2, 1, 2, 0,19, 0.00,60.00,Monday
135,130915817.59055667
3420,130915817.59055667
3738,46965666.73843971
2,2, 1, 2, 0,20, 0.00,60.00,Monday
135,114591120.3768551
3420,114591120.3768551
3738,60485811.603654675
2,2, 1, 2, 0,21, 0.00,60.00,Monday
135,105863576.09982648
3420,105863576.09982648
3738,74237317.72791636
2,2, 1, 2, 0,22, 0.00,60.00,Monday
135,103011114.57527736
3420,103011114.57527736
3738,75836107.61545125
2,2, 1, 2, 0,23, 0.00,60.00,Monday
135,77772390.65670998
3420,77772390.65670998
3738,6791184.0
2,2, 1, 2, 0,24, 0.00,60.00,Monday
135,72442274.24247962
3420,72442274.24247962
3738,6791184.0
2,3, 1, 3, 0, 1, 0.00,60.00,Tuesday
135,57996196.7332391
3420,57996196.7332391
3738,6791184.0
2,3, 1, 3, 0, 2, 0.00,60.00,Tuesday
135,57609860.1137362
3420,57609860.1137362
3738,6791184.0
2,3, 1, 3, 0, 3, 0.00,60.00,Tuesday
135,57609860.1137362
3420,57609860.1137362
3738,6791184.0
2,3, 1, 3, 0, 4, 0.00,60.00,Tuesday
135,57609860.1137362
3420,57609860.1137362
3738,6791184.0
2,3, 1, 3, 0, 5, 0.00,60.00,Tuesday
135,57609860.1137362
3420,57609860.1137362
3738,6791184.0
2,3, 1, 3, 0, 6, 0.00,60.00,Tuesday
135,57609860.1137362
3420,57609860.1137362
3738,6791184.0
2,3, 1, 3, 0, 7, 0.00,60.00,Tuesday
135,106931257.37472215
3420,106931257.37472212
3738,6791184.0
2,3, 1, 3, 0, 8, 0.00,60.00,Tuesday
135,184734841.1423446
3420,184734841.1423446
3738,120832959.7297068
2,3, 1, 3, 0, 9, 0.00,60.00,Tuesday
135,312265575.62436616
3420,312265575.62436616
3738,68892671.80928904
2,3, 1, 3, 0,10, 0.00,60.00,Tuesday
135,279812349.24392164
3420,279812349.24392164
3738,27777781.23698724
2,3, 1, 3, 0,11, 0.00,60.00,Tuesday
135,278334900.0313619
3420,278334900.0313619
3738,9295933.261404604
2,3, 1, 3, 0,12, 0.00,60.00,Tuesday
135,290684622.63813865
3420,290684622.63813865
3738,23542259.622301124
2,3, 1, 3, 0,13, 0.00,60.00,Tuesday
135,290073427.60944575
3420,290073427.60944575
3738,31314670.33408197
2,3, 1, 3, 0,14, 0.00,60.00,Tuesday
135,311174944.21262676
3420,311174944.21262676
3738,26173987.99966827
2,3, 1, 3, 0,15, 0.00,60.00,Tuesday
135,304966823.9567958
3420,304966823.95679575
3738,20136318.258841217
2,3, 1, 3, 0,16, 0.00,60.00,Tuesday
135,309054752.76813424
3420,309054752.7681342
3738,15643327.510827746
2,3, 1, 3, 0,17, 0.00,60.00,Tuesday
135,309940042.67176265
3420,309940042.67176265
3738,20680908.056054913
2,3, 1, 3, 0,18, 0.00,60.00,Tuesday
135,242680258.7493111
3420,242680258.7493111
3738,16251871.944199989
2,3, 1, 3, 0,19, 0.00,60.00,Tuesday
135,132069713.17156494
3420,132069713.17156494
3738,26106541.95556266
2,3, 1, 3, 0,20, 0.00,60.00,Tuesday
135,113569604.38930234
3420,113569604.38930234
3738,44462398.210499495
2,3, 1, 3, 0,21, 0.00,60.00,Tuesday
135,102910895.06207252
3420,102910895.06207252
3738,53926673.13748605
2,3, 1, 3, 0,22, 0.00,60.00,Tuesday
135,98770175.473992
3420,98770175.47399203
3738,83388411.44147202
2,3, 1, 3, 0,23, 0.00,60.00,Tuesday
135,77772390.65670998
3420,77772390.65670998
3738,6791184.0
2,3, 1, 3, 0,24, 0.00,60.00,Tuesday
135,72442274.24247962
3420,72442274.24247962
3738,6791184.0
2,4, 1, 4, 0, 1, 0.00,60.00,Wednesday
135,57996196.7332391
3420,57996196.7332391
3738,6791184.0
2,4, 1, 4, 0, 2, 0.00,60.00,Wednesday
135,57609860.1137362
3420,57609860.1137362
3738,6791184.0
2,4, 1, 4, 0, 3, 0.00,60.00,Wednesday
135,57609860.1137362
3420,57609860.1137362
3738,6791184.0
2,4, 1, 4, 0, 4, 0.00,60.00,Wednesday
135,57609860.1137362
3420,57609860.1137362
3738,6791184.0
2,4, 1, 4, 0, 5, 0.00,60.00,Wednesday
135,57609860.1137362
3420,57609860.1137362
3738,6791184.0
2,4, 1, 4, 0, 6, 0.00,60.00,Wednesday
135,57609860.1137362
3420,57609860.1137362
3738,6791184.0
2,4, 1, 4, 0, 7, 0.00,60.00,Wednesday
135,103755454.93082415
3420,103755454.93082415
3738,6791184.0
2,4, 1, 4, 0, 8, 0.00,60.00,Wednesday
135,184491004.4643848
3420,184491004.4643848
3738,139683752.67577988
2,4, 1, 4, 0, 9, 0.00,60.00,Wednesday
135,309257276.77714854
3420,309257276.7771486
3738,83095029.78652705
2,4, 1, 4, 0,10, 0.00,60.00,Wednesday
135,272185113.924669
3420,272185113.924669
3738,54652377.40591665
2,4, 1, 4, 0,11, 0.00,60.00,Wednesday
135,266550562.08486056
3420,266550562.0848605
3738,34899162.16140272
2,4, 1, 4, 0,12, 0.00,60.00,Wednesday
135,281292242.9374631
3420,281292242.937463
3738,23607985.38142342
2,4, 1, 4, 0,13, 0.00,60.00,Wednesday
135,285973572.2964015
3420,285973572.29640144
3738,31348798.230013758
2,4, 1, 4, 0,14, 0.00,60.00,Wednesday
135,292517489.6756735
3420,292517489.6756735
3738,26188383.070569854
2,4, 1, 4, 0,15, 0.00,60.00,Wednesday
135,278936139.3508474
3420,278936139.3508474
3738,20127398.59969132
2,4, 1, 4, 0,16, 0.00,60.00,Wednesday
135,276955145.5425564
3420,276955145.54255635
3738,15653031.314340789
2,4, 1, 4, 0,17, 0.00,60.00,Wednesday
135,295961521.3481208
3420,295961521.34812075
3738,25318407.256185487
2,4, 1, 4, 0,18, 0.00,60.00,Wednesday
135,249790251.11624223
3420,249790251.11624217
3738,14864476.667762557
2,4, 1, 4, 0,19, 0.00,60.00,Wednesday
135,132103039.86723197
3420,132103039.86723197
3738,28501881.551320106
2,4, 1, 4, 0,20, 0.00,60.00,Wednesday
135,113569604.38930234
3420,113569604.38930234
3738,41762766.323415086
2,4, 1, 4, 0,21, 0.00,60.00,Wednesday
135,102910895.06207252
3420,102910895.06207252
3738,55301881.79344201
2,4, 1, 4, 0,22, 0.00,60.00,Wednesday
135,98267997.61519502
3420,98267997.61519504
3738,67012577.12525496
2,4, 1, 4, 0,23, 0.00,60.00,Wednesday
135,77772390.65670998
3420,77772390.65670998
3738,6791184.0
2,4, 1, 4, 0,24, 0.00,60.00,Wednesday
135,72442274.24247962
3420,72442274.24247962
3738,6791184.0
2,5, 1, 5, 0, 1, 0.00,60.00,Thursday
135,57996196.7332391
3420,57996196.7332391
3738,6791184.0
2,5, 1, 5, 0, 2, 0.00,60.00,Thursday
135,57609860.1137362
3420,57609860.1137362
3738,6791184.0
2,5, 1, 5, 0, 3, 0.00,60.00,Thursday
135,57609860.1137362
3420,57609860.1137362
3738,6791184.0
2,5, 1, 5, 0, 4, 0.00,60.00,Thursday
135,57609860.1137362
3420,57609860.1137362
3738,6791184.0
2,5, 1, 5, 0, 5, 0.00,60.00,Thursday
135,57609860.1137362
3420,57609860.1137362
3738,6791184.0
2,5, 1, 5, 0, 6, 0.00,60.00,Thursday
135,57609860.1137362
3420,57609860.1137362
3738,6791184.0
2,5, 1, 5, 0, 7, 0.00,60.00,Thursday
135,97735623.67105103
3420,97735623.67105103
3738,6791184.0
2,5, 1, 5, 0, 8, 0.00,60.00,Thursday
135,173100768.07654965
3420,173100768.07654962
3738,110910429.20140871
2,5, 1, 5, 0, 9, 0.00,60.00,Thursday
135,311205020.1220606
3420,311205020.12206054
3738,58843916.725474425
2,5, 1, 5, 0,10, 0.00,60.00,Thursday
135,280658060.50632495
3420,280658060.50632495
3738,15412325.557579566
2,5, 1, 5, 0,11, 0.00,60.00,Thursday
135,279876095.09554434
3420,279876095.09554434
3738,11332836.2691178
2,5, 1, 5, 0,12, 0.00,60.00,Thursday
135,292294718.72825456
3420,292294718.72825456
3738,20890598.102329075
2,5, 1, 5, 0,13, 0.00,60.00,Thursday
135,295353791.6656956
3420,295353791.6656956
3738,31321004.3765677
2,5, 1, 5, 0,14, 0.00,60.00,Thursday
135,319223258.974726
3420,319223258.97472596
3738,26189196.296384312
2,5, 1, 5, 0,15, 0.00,60.00,Thursday
135,312672400.9007701
3420,312672400.90077007
3738,20204811.237831824
2,5, 1, 5, 0,16, 0.00,60.00,Thursday
135,316597340.3147546
3420,316597340.3147545
3738,15641997.033621151
2,5, 1, 5, 0,17, 0.00,60.00,Thursday
135,319340311.9371281
3420,319340311.93712807
3738,25321918.178624112
2,5, 1, 5, 0,18, 0.00,60.00,Thursday
135,245783236.8655186
3420,245783236.8655186
3738,11104752.592050675
2,5, 1, 5, 0,19, 0.00,60.00,Thursday
135,132919744.28767565
3420,132919744.28767565
3738,13944577.741628896
2,5, 1, 5, 0,20, 0.00,60.00,Thursday
135,113569604.38930234
3420,113569604.38930234
3738,28354982.546491858
2,5, 1, 5, 0,21, 0.00,60.00,Thursday
135,102910895.06207252
3420,102910895.06207252
3738,39815667.571056575
2,5, 1, 5, 0,22, 0.00,60.00,Thursday
135,98267997.61519502
3420,98267997.61519504
3738,53897902.32273879
2,5, 1, 5, 0,23, 0.00,60.00,Thursday
135,77772390.65670998
3420,77772390.65670998
3738,6791184.0
2,5, 1, 5, 0,24, 0.00,60.00,Thursday
135,72442274.24247962
3420,72442274.24247962
3738,6791184.0
2,6, 1, 6, 0, 1, 0.00,60.00,Friday
135,57996196.7332391
3420,57996196.7332391
3738,6791184.0
2,6, 1, 6, 0, 2, 0.00,60.00,Friday
135,57609860.1137362
3420,57609860.1137362
3738,6791184.0
2,6, 1, 6, 0, 3, 0.00,60.00,Friday
135,57609860.1137362
3420,57609860.1137362
3738,6791184.0
2,6, 1, 6, 0, 4, 0.00,60.00,Friday
135,57609860.1137362
3420,57609860.1137362
3738,6791184.0
2,6, 1, 6, 0, 5, 0.00,60.00,Friday
135,57609860.1137362
3420,57609860.1137362
3738,6791184.0
2,6, 1, 6, 0, 6, 0.00,60.00,Friday
135,57609860.1137362
3420,57609860.1137362
3738,6791184.0
2,6, 1, 6, 0, 7, 0.00,60.00,Friday
135,100874498.80210993
3420,100874498.80210996
3738,6791184.0
2,6, 1, 6, 0, 8, 0.00,60.00,Friday
135,185012151.70365253
3420,185012151.7036525
3738,115173439.34392655
2,6, 1, 6, 0, 9, 0.00,60.00,Friday
135,311864635.2464785
3420,311864635.2464785
3738,82718883.24284047
2,6, 1, 6, 0,10, 0.00,60.00,Friday
135,270760642.5463952
3420,270760642.5463952
3738,75199093.02771139
2,6, 1, 6, 0,11, 0.00,60.00,Friday
135,263574249.679065
3420,263574249.679065
3738,64362356.05111039
2,6, 1, 6, 0,12, 0.00,60.00,Friday
135,282489219.14205617
3420,282489219.1420561
3738,40890408.34959051
2,6, 1, 6, 0,13, 0.00,60.00,Friday
135,291679706.9357716
3420,291679706.9357716
3738,28107688.715244368
2,6, 1, 6, 0,14, 0.00,60.00,Friday
135,308671350.3757951
3420,308671350.3757951
3738,27356335.104887538
2,6, 1, 6, 0,15, 0.00,60.00,Friday
135,301530339.69325376
3420,301530339.69325376
3738,19100898.233120557
2,6, 1, 6, 0,16, 0.00,60.00,Friday
135,304696593.3533642
3420,304696593.3533641
3738,15649369.115394212
2,6, 1, 6, 0,17, 0.00,60.00,Friday
135,309493379.4927642
3420,309493379.4927641
3738,25324634.014026977
2,6, 1, 6, 0,18, 0.00,60.00,Friday
135,252005436.93270802
3420,252005436.93270805
3738,46958803.33053042
2,6, 1, 6, 0,19, 0.00,60.00,Friday
135,131486257.17165443
3420,131486257.17165443
3738,71752465.51635388
2,6, 1, 6, 0,20, 0.00,60.00,Friday
135,113569604.38930234
3420,113569604.38930234
3738,75354054.68499231
2,6, 1, 6, 0,21, 0.00,60.00,Friday
135,103721887.6060653
3420,103721887.6060653
3738,92943327.67809422
2,6, 1, 6, 0,22, 0.00,60.00,Friday
135,100540602.12163739
3420,100540602.1216374
3738,91981575.97081652
2,6, 1, 6, 0,23, 0.00,60.00,Friday
135,77772390.65670998
3420,77772390.65670998
3738,6791184.0
2,6, 1, 6, 0,24, 0.00,60.00,Friday
135,72442274.24247962
3420,72442274.24247962
3738,6791184.0
2,7, 1, 7, 0, 1, 0.00,60.00,Saturday
135,46745513.81922844
3420,46745513.81922843
3738,6791184.0
2,7, 1, 7, 0, 2, 0.00,60.00,Saturday
135,46359235.70955593
3420,46359235.709555924
3738,6791184.0
2,7, 1, 7, 0, 3, 0.00,60.00,Saturday
135,46359235.70955593
3420,46359235.709555924
3738,6791184.0
2,7, 1, 7, 0, 4, 0.00,60.00,Saturday
135,46359235.70955593
3420,46359235.709555924
3738,6791184.0
2,7, 1, 7, 0, 5, 0.00,60.00,Saturday
135,46359235.70955593
3420,46359235.709555924
3738,6791184.0
2,7, 1, 7, 0, 6, 0.00,60.00,Saturday
135,46359235.70955593
3420,46359235.709555924
3738,6791184.0
2,7, 1, 7, 0, 7, 0.00,60.00,Saturday
135,110561280.09813781
3420,110561280.09813783
3738,6791184.0
2,7, 1, 7, 0, 8, 0.00,60.00,Saturday
135,138475748.02109048
3420,138475748.02109048
3738,126956145.40199202
2,7, 1, 7, 0, 9, 0.00,60.00,Saturday
135,132874862.16839139
3420,132874862.16839136
3738,109118163.61979377
2,7, 1, 7, 0,10, 0.00,60.00,Saturday
135,135156395.79349858
3420,135156395.7934986
3738,95337645.40089162
2,7, 1, 7, 0,11, 0.00,60.00,Saturday
135,128182600.25727639
3420,128182600.25727639
3738,67089820.411321625
2,7, 1, 7, 0,12, 0.00,60.00,Saturday
135,139054610.5584887
3420,139054610.5584887
3738,28275576.95768001
2,7, 1, 7, 0,13, 0.00,60.00,Saturday
135,98688069.02274138
3420,98688069.02274138
3738,17217756.539653774
2,7, 1, 7, 0,14, 0.00,60.00,Saturday
135,86592663.57290725
3420,86592663.57290725
3738,18097242.34176814
2,7, 1, 7, 0,15, 0.00,60.00,Saturday
135,80777988.06353001
3420,80777988.06353001
3738,16576347.603983019
2,7, 1, 7, 0,16, 0.00,60.00,Saturday
135,76233398.28453368
3420,76233398.28453368
3738,27172958.33657609
2,7, 1, 7, 0,17, 0.00,60.00,Saturday
135,79003161.22063679
3420,79003161.22063679
3738,40598991.28595701
2,7, 1, 7, 0,18, 0.00,60.00,Saturday
135,83077160.33306564
3420,83077160.33306564
3738,61348223.12833744
2,7, 1, 7, 0,19, 0.00,60.00,Saturday
135,66276703.53612528
3420,66276703.53612528
3738,6791184.0
2,7, 1, 7, 0,20, 0.00,60.00,Saturday
135,49290893.81922844
3420,49290893.81922844
3738,6791184.0
2,7, 1, 7, 0,21, 0.00,60.00,Saturday
135,48904615.70955593
3420,48904615.70955593
3738,6791184.0
2,7, 1, 7, 0,22, 0.00,60.00,Saturday
135,48904615.70955593
3420,48904615.70955593
3738,6791184.0
2,7, 1, 7, 0,23, 0.00,60.00,Saturday
135,48904615.70955593
3420,48904615.70955593
3738,6791184.0
2,7, 1, 7, 0,24, 0.00,60.00,Saturday
135,48904615.70955593
3420,48904615.70955593
3738,6791184.0
2,8, 1, 8, 0, 1, 0.00,60.00,Sunday
135,46359235.70955593
3420,46359235.709555924
3738,6791184.0
2,8, 1, 8, 0, 2, 0.00,60.00,Sunday
135,46359235.70955593
3420,46359235.709555924
3738,6791184.0
2,8, 1, 8, 0, 3, 0.00,60.00,Sunday
135,46359235.70955593
3420,46359235.709555924
3738,6791184.0
2,8, 1, 8, 0, 4, 0.00,60.00,Sunday
135,46359235.70955593
3420,46359235.709555924
3738,6791184.0
2,8, 1, 8, 0, 5, 0.00,60.00,Sunday
135,46359235.70955593
3420,46359235.709555924
3738,6791184.0
2,8, 1, 8, 0, 6, 0.00,60.00,Sunday
135,46359235.70955593
3420,46359235.709555924
3738,6791184.0
2,8, 1, 8, 0, 7, 0.00,60.00,Sunday
135,66032185.73006148
3420,66032185.73006148
3738,6791184.0
2,8, 1, 8, 0, 8, 0.00,60.00,Sunday
135,53323580.330645084
3420,53323580.330645084
3738,6791184.0
2,8, 1, 8, 0, 9, 0.00,60.00,Sunday
135,46344166.24829911
3420,46344166.24829911
3738,6791184.0
2,8, 1, 8, 0,10, 0.00,60.00,Sunday
135,46288812.51597283
3420,46288812.51597283
3738,6791184.0
2,8, 1, 8, 0,11, 0.00,60.00,Sunday
135,47014520.999376155
3420,47014520.99937615
3738,6791184.0
2,8, 1, 8, 0,12, 0.00,60.00,Sunday
135,50291493.54851301
3420,50291493.548513
3738,6791184.0
2,8, 1, 8, 0,13, 0.00,60.00,Sunday
135,53578714.377893694
3420,53578714.3778937
3738,6791184.0
2,8, 1, 8, 0,14, 0.00,60.00,Sunday
135,54333173.101266816
3420,54333173.101266816
3738,6791184.0
2,8, 1, 8, 0,15, 0.00,60.00,Sunday
135,53686785.81876434
3420,53686785.818764344
3738,6791184.0
2,8, 1, 8, 0,16, 0.00,60.00,Sunday
135,55332380.75452103
3420,55332380.75452102
3738,6791184.0
2,8, 1, 8, 0,17, 0.00,60.00,Sunday
135,50945637.454517804
3420,50945637.454517804
3738,6791184.0
2,8, 1, 8, 0,18, 0.00,60.00,Sunday
135,66276671.30593526
3420,66276671.30593526
3738,6791184.0
2,8, 1, 8, 0,19, 0.00,60.00,Sunday
135,57105773.81922845
3420,57105773.81922844
3738,6791184.0
2,8, 1, 8, 0,20, 0.00,60.00,Sunday
135,48904615.70955593
3420,48904615.70955593
3738,6791184.0
2,8, 1, 8, 0,21, 0.00,60.00,Sunday
135,48904615.70955593
3420,48904615.70955593
3738,6791184.0
2,8, 1, 8, 0,22, 0.00,60.00,Sunday
135,48904615.70955593
3420,48904615.70955593
3738,6791184.0
2,8, 1, 8, 0,23, 0.00,60.00,Sunday
135,48904615.70955593
3420,48904615.70955593
3738,6791184.0
2,8, 1, 8, 0,24, 0.00,60.00,Sunday
135,48904615.70955593
3420,48904615.70955593
3738,6791184.0
2,9, 1, 9, 0, 1, 0.00,60.00,Monday
135,57609860.1137362
3420,57609860.1137362
3738,6791184.0
2,9, 1, 9, 0, 2, 0.00,60.00,Monday
135,57609860.1137362
3420,57609860.1137362
3738,6791184.0
2,9, 1, 9, 0, 3, 0.00,60.00,Monday
135,57609860.1137362
3420,57609860.1137362
3738,6791184.0
2,9, 1, 9, 0, 4, 0.00,60.00,Monday
135,57609860.1137362
3420,57609860.1137362
3738,6791184.0
2,9, 1, 9, 0, 5, 0.00,60.00,Monday
135,57609860.1137362
3420,57609860.1137362
3738,6791184.0
2,9, 1, 9, 0, 6, 0.00,60.00,Monday
135,57609860.1137362
3420,57609860.1137362
3738,6791184.0
2,9, 1, 9, 0, 7, 0.00,60.00,Monday
135,128938646.2650525
3420,128938646.26505251
3738,6791184.0
2,9, 1, 9, 0, 8, 0.00,60.00,Monday
135,220413613.18722972
3420,220413613.1872297
3738,128805161.03472069
2,9, 1, 9, 0, 9, 0.00,60.00,Monday
135,314854515.77461123
3420,314854515.7746112
3738,78066090.29370911
2,9, 1, 9, 0,10, 0.00,60.00,Monday
135,275027553.5889699
3420,275027553.5889698
3738,51873802.51247789
2,9, 1, 9, 0,11, 0.00,60.00,Monday
135,271008408.0242497
3420,271008408.0242497
3738,17257519.32931296
2,9, 1, 9, 0,12, 0.00,60.00,Monday
135,286858099.6234463
3420,286858099.6234463
3738,20903860.369010475
2,9, 1, 9, 0,13, 0.00,60.00,Monday
135,284867115.9047969
3420,284867115.9047969
3738,31355574.660527468
2,9, 1, 9, 0,14, 0.00,60.00,Monday
135,299995101.9033427
3420,299995101.9033427
3738,26214925.65927485
2,9, 1, 9, 0,15, 0.00,60.00,Monday
135,295120862.543397
3420,295120862.54339695
3738,20131557.842225876
2,9, 1, 9, 0,16, 0.00,60.00,Monday
135,303596336.0715293
3420,303596336.0715293
3738,15659348.62031467
2,9, 1, 9, 0,17, 0.00,60.00,Monday
135,312329260.4461303
3420,312329260.4461303
3738,25336255.628711633
2,9, 1, 9, 0,18, 0.00,60.00,Monday
135,241458222.40726277
3420,241458222.40726277
3738,11455580.21318193
2,9, 1, 9, 0,19, 0.00,60.00,Monday
135,131881907.7398423
3420,131881907.7398423
3738,26577392.988049854
2,9, 1, 9, 0,20, 0.00,60.00,Monday
135,113601592.16197395
3420,113601592.16197395
3738,34720292.679458804
2,9, 1, 9, 0,21, 0.00,60.00,Monday
135,103899162.73285377
3420,103899162.73285377
3738,24605843.962877966
2,9, 1, 9, 0,22, 0.00,60.00,Monday
135,100707326.42665541
3420,100707326.42665544
3738,31962455.86279174
2,9, 1, 9, 0,23, 0.00,60.00,Monday
135,77772390.65670998
3420,77772390.65670998
3738,6791184.0
2,9, 1, 9, 0,24, 0.00,60.00,Monday
135,72442274.24247962
3420,72442274.24247962
3738,6791184.0
2,10, 1,10, 0, 1, 0.00,60.00,Tuesday
135,57996196.7332391
3420,57996196.7332391
3738,6791184.0
2,10, 1,10, 0, 2, 0.00,60.00,Tuesday
135,57609860.1137362
3420,57609860.1137362
3738,6791184.0
2,10, 1,10, 0, 3, 0.00,60.00,Tuesday
135,57609860.1137362
3420,57609860.1137362
3738,6791184.0
2,10, 1,10, 0, 4, 0.00,60.00,Tuesday
135,57609860.1137362
3420,57609860.1137362
3738,6791184.0
2,10, 1,10, 0, 5, 0.00,60.00,Tuesday
135,57609860.1137362
3420,57609860.1137362
3738,6791184.0
2,10, 1,10, 0, 6, 0.00,60.00,Tuesday
135,57609860.1137362
3420,57609860.1137362
3738,6791184.0
2,10, 1,10, 0, 7, 0.00,60.00,Tuesday
135,111538869.90067704
3420,111538869.90067704
3738,6791184.0
2,10, 1,10, 0, 8, 0.00,60.00,Tuesday
135,192372989.87498188
3420,192372989.87498188
3738,142357704.1335672
2,10, 1,10, 0, 9, 0.00,60.00,Tuesday
135,308547897.46278816
3420,308547897.46278816
3738,91431898.01147231
2,10, 1,10, 0,10, 0.00,60.00,Tuesday
135,269772804.50651914
3420,269772804.50651914
3738,69941125.71851955
2,10, 1,10, 0,11, 0.00,60.00,Tuesday
135,262369595.2573428
3420,262369595.25734276
3738,59876088.125997126
2,10, 1,10, 0,12, 0.00,60.00,Tuesday
135,272146488.5234
3420,272146488.5234
3738,70404136.8918836
2,10, 1,10, 0,13, 0.00,60.00,Tuesday
135,289033886.57970524
3420,289033886.5797052
3738,52057457.49392245
2,10, 1,10, 0,14, 0.00,60.00,Tuesday
135,288492193.4934179
3420,288492193.4934179
3738,33143402.11749105
2,10, 1,10, 0,15, 0.00,60.00,Tuesday
135,280321249.1570529
3420,280321249.1570528
3738,16008810.042150866
2,10, 1,10, 0,16, 0.00,60.00,Tuesday
135,282260595.1507508
3420,282260595.1507508
3738,17520735.292505864
2,10, 1,10, 0,17, 0.00,60.00,Tuesday
135,294410507.4972415
3420,294410507.4972415
3738,23391714.347910225
2,10, 1,10, 0,18, 0.00,60.00,Tuesday
135,250026018.3210636
3420,250026018.3210636
3738,34236644.82322465
2,10, 1,10, 0,19, 0.00,60.00,Tuesday
135,130951941.35021973
3420,130951941.35021973
3738,71550734.77122746
2,10, 1,10, 0,20, 0.00,60.00,Tuesday
135,113622405.73793022
3420,113622405.73793022
3738,75620586.8185069
2,10, 1,10, 0,21, 0.00,60.00,Tuesday
135,104066899.51500581
3420,104066899.51500581
3738,85157580.440501
2,10, 1,10, 0,22, 0.00,60.00,Tuesday
135,102592237.7950146
3420,102592237.79501465
3738,98018439.0330244
2,10, 1,10, 0,23, 0.00,60.00,Tuesday
135,77772390.65670998
3420,77772390.65670998
3738,6791184.0
2,10, 1,10, 0,24, 0.00,60.00,Tuesday
135,72442274.24247962
3420,72442274.24247962
3738,6791184.0
2,11, 1,11, 0, 1, 0.00,60.00,Wednesday
135,57996196.7332391
3420,57996196.7332391
3738,6791184.0
2,11, 1,11, 0, 2, 0.00,60.00,Wednesday
135,57609860.1137362
3420,57609860.1137362
3738,6791184.0
2,11, 1,11, 0, 3, 0.00,60.00,Wednesday
135,57609860.1137362
3420,57609860.1137362
3738,6791184.0
2,11, 1,11, 0, 4, 0.00,60.00,Wednesday
135,57609860.1137362
3420,57609860.1137362
3738,6791184.0
2,11, 1,11, 0, 5, 0.00,60.00,Wednesday
135,57609860.1137362
3420,57609860.1137362
3738,6791184.0
2,11, 1,11, 0, 6, 0.00,60.00,Wednesday
135,57609860.1137362
3420,57609860.1137362
3738,6791184.0
2,11, 1,11, 0, 7, 0.00,60.00,Wednesday
135,106529668.34574994
3420,106529668.34574994
3738,6791184.0
2,11, 1,11, 0, 8, 0.00,60.00,Wednesday
135,185278173.967927
3420,185278173.96792698
3738,83862529.5946081
2,11, 1,11, 0, 9, 0.00,60.00,Wednesday
135,303382805.79760015
3420,303382805.79760015
3738,57875498.1992227
2,11, 1,11, 0,10, 0.00,60.00,Wednesday
135,267309312.3568284
3420,267309312.35682836
3738,42860139.953168
2,11, 1,11, 0,11, 0.00,60.00,Wednesday
135,261818563.39293966
3420,261818563.39293966
3738,16206686.386844274
2,11, 1,11, 0,12, 0.00,60.00,Wednesday
135,270564696.6349102
3420,270564696.63491017
3738,26278920.85390624
2,11, 1,11, 0,13, 0.00,60.00,Wednesday
135,273523957.388963
3420,273523957.38896286
3738,37426881.92874511
2,11, 1,11, 0,14, 0.00,60.00,Wednesday
135,273927223.7851654
3420,273927223.7851654
3738,28404562.211522017
2,11, 1,11, 0,15, 0.00,60.00,Wednesday
135,259907408.00334096
3420,259907408.0033409
3738,20179389.09357365
2,11, 1,11, 0,16, 0.00,60.00,Wednesday
135,260220511.74964494
3420,260220511.74964494
3738,23565282.181512207
2,11, 1,11, 0,17, 0.00,60.00,Wednesday
135,277336381.23369575
3420,277336381.2336957
3738,51889692.09850845
2,11, 1,11, 0,18, 0.00,60.00,Wednesday
135,241866517.78352463
3420,241866517.7835246
3738,56551216.93812739
2,11, 1,11, 0,19, 0.00,60.00,Wednesday
135,131660864.01985896
3420,131660864.01985893
3738,82309225.68980068
2,11, 1,11, 0,20, 0.00,60.00,Wednesday
135,113673925.46991053
3420,113673925.46991052
3738,91684682.34341489
2,11, 1,11, 0,21, 0.00,60.00,Wednesday
135,104472886.31895737
3420,104472886.31895739
3738,91311287.37726368
2,11, 1,11, 0,22, 0.00,60.00,Wednesday
135,102061849.54303561
3420,102061849.54303561
3738,102083847.06311457
2,11, 1,11, 0,23, 0.00,60.00,Wednesday
135,77772390.65670998
3420,77772390.65670998
3738,6791184.0
2,11, 1,11, 0,24, 0.00,60.00,Wednesday
135,72442274.24247962
3420,72442274.24247962
3738,6791184.0
2,12, 1,12, 0, 1, 0.00,60.00,Thursday
135,57996196.7332391
3420,57996196.7332391
3738,6791184.0
2,12, 1,12, 0, 2, 0.00,60.00,Thursday
135,57609860.1137362
3420,57609860.1137362
3738,6791184.0
2,12, 1,12, 0, 3, 0.00,60.00,Thursday
135,57609860.1137362
3420,57609860.1137362
3738,6791184.0
2,12, 1,12, 0, 4, 0.00,60.00,Thursday
135,57609860.1137362
3420,57609860.1137362
3738,6791184.0
2,12, 1,12, 0, 5, 0.00,60.00,Thursday
135,57609860.1137362
3420,57609860.1137362
3738,6791184.0
2,12, 1,12, 0, 6, 0.00,60.00,Thursday
135,57609860.1137362
3420,57609860.1137362
3738,6791184.0
2,12, 1,12, 0, 7, 0.00,60.00,Thursday
135,108493285.1591045
3420,108493285.1591045
3738,6791184.0
2,12, 1,12, 0, 8, 0.00,60.00,Thursday
135,187365055.59555656
3420,187365055.59555656
3738,118571954.77637775
2,12, 1,12, 0, 9, 0.00,60.00,Thursday
135,310509813.7874338
3420,310509813.78743386
3738,76319017.52633768
2,12, 1,12, 0,10, 0.00,60.00,Thursday
135,270709647.0650458
3420,270709647.0650457
3738,62687981.97255727
2,12, 1,12, 0,11, 0.00,60.00,Thursday
135,264912960.69812155
3420,264912960.6981215
3738,44684693.86106753
2,12, 1,12, 0,12, 0.00,60.00,Thursday
135,277158556.39541304
3420,277158556.39541304
3738,36445002.79916028
2,12, 1,12, 0,13, 0.00,60.00,Thursday
135,288603626.97903043
3420,288603626.97903043
3738,28906836.529668942
2,12, 1,12, 0,14, 0.00,60.00,Thursday
135,288082870.08710986
3420,288082870.08710986
3738,31096849.030181274
2,12, 1,12, 0,15, 0.00,60.00,Thursday
135,272555363.26523954
3420,272555363.2652395
3738,15684513.104443844
2,12, 1,12, 0,16, 0.00,60.00,Thursday
135,272599584.4592867
3420,272599584.45928663
3738,20104935.535417534
2,12, 1,12, 0,17, 0.00,60.00,Thursday
135,291447185.6319658
3420,291447185.63196576
3738,20720380.624814436
2,12, 1,12, 0,18, 0.00,60.00,Thursday
135,253448310.61167693
3420,253448310.61167693
3738,30519369.342521377
2,12, 1,12, 0,19, 0.00,60.00,Thursday
135,131613002.85942999
3420,131613002.85942999
3738,41467576.44982525
2,12, 1,12, 0,20, 0.00,60.00,Thursday
135,113569604.38930234
3420,113569604.38930234
3738,38788724.72159557
2,12, 1,12, 0,21, 0.00,60.00,Thursday
135,102910895.06207252
3420,102910895.06207252
3738,41528735.31120861
2,12, 1,12, 0,22, 0.00,60.00,Thursday
135,98368818.24884595
3420,98368818.24884595
3738,43635343.6373104
2,12, 1,12, 0,23, 0.00,60.00,Thursday
135,77772390.65670998
3420,77772390.65670998
3738,6791184.0
2,12, 1,12, 0,24, 0.00,60.00,Thursday
135,72442274.24247962
3420,72442274.24247962
3738,6791184.0
2,13, 1,13, 0, 1, 0.00,60.00,Friday
135,57996196.7332391
3420,57996196.7332391
3738,6791184.0