Program Version,EnergyPlus, Version 9.6.0-f420c06a69, YMD=2022.07.16 14:42
1,5,Environment Title[],Latitude[deg],Longitude[deg],Time Zone[],Elevation[m]
2,8,Day of Simulation[],Month[],Day of Month[],DST Indicator[1=yes 0=no],Hour[],StartMinute[],EndMinute[],DayType
3,5,Cumulative Day of Simulation[],Month[],Day of Month[],DST Indicator[1=yes 0=no],DayType  ! When Daily Meters Requested
4,2,Cumulative Days of Simulation[],Month[]  ! When Monthly Meters Requested
5,1,Cumulative Days of Simulation[] ! When Run Period Meters Requested
6,1,Calendar Year of Simulation[] ! When Annual Meters Requested
135,1,Electricity:Facility [J] !Hourly
3420,1,ElectricityNet:Facility [J] !Hourly
3738,1,NaturalGas:Facility [J] !Hourly
End of Data Dictionary
1,RUNPERIOD 1,  35.04,-106.62,  -7.00,1619.00
2,1, 1, 1, 0, 1, 0.00,60.00,Holiday
135,46359074.93593144
3420,46359074.93593143
3738,6791184.0
2,1, 1, 1, 0, 2, 0.00,60.00,Holiday
135,46359235.70955593
3420,46359235.709555924
3738,6791184.0
2,1, 1, 1, 0, 3, 0.00,60.00,Holiday
135,46359235.70955593
3420,46359235.709555924
3738,6791184.0
2,1, 1, 1, 0, 4, 0.00,60.00,Holiday
135,46359235.70955593
3420,46359235.709555924
3738,6791184.0
2,1, 1, 1, 0, 5, 0.00,60.00,Holiday
135,46359235.70955593
3420,46359235.709555924
3738,6791184.0
2,1, 1, 1, 0, 6, 0.00,60.00,Holiday
135,46359235.70955593
3420,46359235.709555924
3738,6791184.0
2,1, 1, 1, 0, 7, 0.00,60.00,Holiday
135,66032185.73006148
3420,66032185.73006148
3738,6791184.0
2,1, 1, 1, 0, 8, 0.00,60.00,Holiday
135,50074623.774579875
3420,50074623.774579875
3738,6791184.0
2,1, 1, 1, 0, 9, 0.00,60.00,Holiday
135,46351708.9331394
3420,46351708.9331394
3738,6791184.0
2,1, 1, 1, 0,10, 0.00,60.00,Holiday
135,46288813.17904917
3420,46288813.179049164
3738,6791184.0
2,1, 1, 1, 0,11, 0.00,60.00,Holiday
135,51149014.50787013
3420,51149014.50787013
3738,6791184.0
2,1, 1, 1, 0,12, 0.00,60.00,Holiday
135,53542591.30173427
3420,53542591.30173427
3738,6791184.0
2,1, 1, 1, 0,13, 0.00,60.00,Holiday
135,54827857.64153222
3420,54827857.64153222
3738,6791184.0
2,1, 1, 1, 0,14, 0.00,60.00,Holiday
135,61196507.52122828
3420,61196507.5212283
3738,6791184.0
2,1, 1, 1, 0,15, 0.00,60.00,Holiday
135,67239153.60782859
3420,67239153.60782859
3738,6791184.0
2,1, 1, 1, 0,16, 0.00,60.00,Holiday
135,64721412.807741076
3420,64721412.80774109
3738,6791184.0
2,1, 1, 1, 0,17, 0.00,60.00,Holiday
135,55473596.479658276
3420,55473596.479658276
3738,6791184.0
2,1, 1, 1, 0,18, 0.00,60.00,Holiday
135,66905826.86107348
3420,66905826.86107348
3738,6791184.0
2,1, 1, 1, 0,19, 0.00,60.00,Holiday
135,57105773.81922845
3420,57105773.81922844
3738,6791184.0
2,1, 1, 1, 0,20, 0.00,60.00,Holiday
135,48904615.70955593
3420,48904615.70955593
3738,6791184.0
2,1, 1, 1, 0,21, 0.00,60.00,Holiday
135,48904615.70955593
3420,48904615.70955593
3738,6791184.0
2,1, 1, 1, 0,22, 0.00,60.00,Holiday
135,48904615.70955593
3420,48904615.70955593
3738,6791184.0
2,1, 1, 1, 0,23, 0.00,60.00,Holiday
135,48904615.70955593
3420,48904615.70955593
3738,6791184.0
2,1, 1, 1, 0,24, 0.00,60.00,Holiday
135,48904615.70955593
3420,48904615.70955593
3738,6791184.0
2,2, 1, 2, 0, 1, 0.00,60.00,Monday
135,57609860.1137362
3420,57609860.1137362
3738,6791184.0
2,2, 1, 2, 0, 2, 0.00,60.00,Monday
135,57609860.1137362
3420,57609860.1137362
3738,6791184.0
2,2, 1, 2, 0, 3, 0.00,60.00,Monday
135,57609860.1137362
3420,57609860.1137362
3738,6791184.0
2,2, 1, 2, 0, 4, 0.00,60.00,Monday
135,57609860.1137362
3420,57609860.1137362
3738,6791184.0
2,2, 1, 2, 0, 5, 0.00,60.00,Monday
135,57609860.1137362
3420,57609860.1137362
3738,6791184.0
2,2, 1, 2, 0, 6, 0.00,60.00,Monday
135,57609860.1137362
3420,57609860.1137362
3738,6791184.0
2,2, 1, 2, 0, 7, 0.00,60.00,Monday
135,127996825.63454857
3420,127996825.63454857
3738,6791184.0
2,2, 1, 2, 0, 8, 0.00,60.00,Monday
135,215776918.25572556
3420,215776918.25572553
3738,138020718.205081
2,2, 1, 2, 0, 9, 0.00,60.00,Monday
135,308779831.98790205
3420,308779831.98790205
3738,82873177.66038454
2,2, 1, 2, 0,10, 0.00,60.00,Monday
135,272391633.6877966
3420,272391633.68779653
3738,53951717.89646106
2,2, 1, 2, 0,11, 0.00,60.00,Monday
135,270626858.73905873
3420,270626858.73905873
3738,16290746.029742379
2,2, 1, 2, 0,12, 0.00,60.00,Monday
135,289695713.59204376
3420,289695713.59204376
3738,20876788.629584327
2,2, 1, 2, 0,13, 0.00,60.00,Monday
135,291132855.59700644
3420,291132855.59700644
3738,31334466.06780298
2,2, 1, 2, 0,14, 0.00,60.00,Monday
135,308021486.08789706
3420,308021486.08789706
3738,26165957.600102253
2,2, 1, 2, 0,15, 0.00,60.00,Monday
135,301222934.61526537
3420,301222934.6152653
3738,16608219.527592774
2,2, 1, 2, 0,16, 0.00,60.00,Monday
135,306260640.67507416
3420,306260640.67507416
3738,19132384.55082509
2,2, 1, 2, 0,17, 0.00,60.00,Monday
135,303775473.3403636
3420,303775473.34036356
3738,20696667.15605069
2,2, 1, 2, 0,18, 0.00,60.00,Monday
135,238144633.47194412
3420,238144633.4719441
3738,19995254.898005724
2,2, 1, 2, 0,19, 0.00,60.00,Monday
135,130915817.59055667
3420,130915817.59055667
3738,46965666.73843971
2,2, 1, 2, 0,20, 0.00,60.00,Monday
135,114591120.3768551
3420,114591120.3768551
3738,60485811.603654675
2,2, 1, 2, 0,21, 0.00,60.00,Monday
135,105863576.09982648
3420,105863576.09982648
3738,74237317.72791636
2,2, 1, 2, 0,22, 0.00,60.00,Monday
135,103011114.57527736
3420,103011114.57527736
3738,75836107.61545125
2,2, 1, 2, 0,23, 0.00,60.00,Monday
135,77772390.65670998
3420,77772390.65670998
3738,6791184.0
2,2, 1, 2, 0,24, 0.00,60.00,Monday
135,72442274.24247962
3420,72442274.24247962
3738,6791184.0
2,3, 1, 3, 0, 1, 0.00,60.00,Tuesday
135,57996196.7332391
3420,57996196.7332391
3738,6791184.0
2,3, 1, 3, 0, 2, 0.00,60.00,Tuesday
135,57609860.1137362
3420,57609860.1137362
3738,6791184.0
2,3, 1, 3, 0, 3, 0.00,60.00,Tuesday
135,57609860.1137362
3420,57609860.1137362
3738,6791184.0
2,3, 1, 3, 0, 4, 0.00,60.00,Tuesday
135,57609860.1137362
3420,57609860.1137362
3738,6791184.0
2,3, 1, 3, 0, 5, 0.00,60.00,Tuesday
135,57609860.1137362
3420,57609860.1137362
3738,6791184.0
2,3, 1, 3, 0, 6, 0.00,60.00,Tuesday
135,57609860.1137362
3420,57609860.1137362
3738,6791184.0
2,3, 1, 3, 0, 7, 0.00,60.00,Tuesday
135,106931257.37472215
3420,106931257.37472212
3738,6791184.0
2,3, 1, 3, 0, 8, 0.00,60.00,Tuesday
135,184734841.1423446
3420,184734841.1423446
3738,120832959.7297068
2,3, 1, 3, 0, 9, 0.00,60.00,Tuesday
135,312265575.62436616
3420,312265575.62436616
3738,68892671.80928904
2,3, 1, 3, 0,10, 0.00,60.00,Tuesday
135,279812349.24392164
3420,279812349.24392164
3738,27777781.23698724
2,3, 1, 3, 0,11, 0.00,60.00,Tuesday
135,278334900.0313619
3420,278334900.0313619
3738,9295933.261404604
2,3, 1, 3, 0,12, 0.00,60.00,Tuesday
135,290684622.63813865
3420,290684622.63813865
3738,23542259.622301124
2,3, 1, 3, 0,13, 0.00,60.00,Tuesday
135,290073427.60944575
3420,290073427.60944575
3738,31314670.33408197
2,3, 1, 3, 0,14, 0.00,60.00,Tuesday
135,311174944.21262676
3420,311174944.21262676
3738,26173987.99966827
2,3, 1, 3, 0,15, 0.00,60.00,Tuesday
135,304966823.9567958
3420,304966823.95679575
3738,20136318.258841217
2,3, 1, 3, 0,16, 0.00,60.00,Tuesday
135,309054752.76813424
3420,309054752.7681342
3738,15643327.510827746
2,3, 1, 3, 0,17, 0.00,60.00,Tuesday
135,309940042.67176265
3420,309940042.67176265
3738,20680908.056054913
2,3, 1, 3, 0,18, 0.00,60.00,Tuesday
135,242680258.7493111
3420,242680258.7493111
3738,16251871.944199989
2,3, 1, 3, 0,19, 0.00,60.00,Tuesday
135,132069713.17156494
3420,132069713.17156494
3738,26106541.95556266
2,3, 1, 3, 0,20, 0.00,60.00,Tuesday
135,113569604.38930234
3420,113569604.38930234
3738,44462398.210499495
2,3, 1, 3, 0,21, 0.00,60.00,Tuesday
135,102910895.06207252
3420,102910895.06207252
3738,53926673.13748605
2,3, 1, 3, 0,22, 0.00,60.00,Tuesday
135,98770175.473992
3420,98770175.47399203
3738,83388411.44147202
2,3, 1, 3, 0,23, 0.00,60.00,Tuesday
135,77772390.65670998
3420,77772390.65670998
3738,6791184.0
2,3, 1, 3, 0,24, 0.00,60.00,Tuesday
135,72442274.24247962
3420,72442274.24247962
3738,6791184.0
2,4, 1, 4, 0, 1, 0.00,60.00,Wednesday
135,57996196.7332391
3420,57996196.7332391
3738,6791184.0
2,4, 1, 4, 0, 2, 0.00,60.00,Wednesday
135,57609860.1137362
3420,57609860.1137362
3738,6791184.0
2,4, 1, 4, 0, 3, 0.00,60.00,Wednesday
135,57609860.1137362
3420,57609860.1137362
3738,6791184.0
2,4, 1, 4, 0, 4, 0.00,60.00,Wednesday
135,57609860.1137362
3420,57609860.1137362
3738,6791184.0
2,4, 1, 4, 0, 5, 0.00,60.00,Wednesday
135,57609860.1137362
3420,57609860.1137362
3738,6791184.0
2,4, 1, 4, 0, 6, 0.00,60.00,Wednesday
135,57609860.1137362
3420,57609860.1137362
3738,6791184.0
2,4, 1, 4, 0, 7, 0.00,60.00,Wednesday
135,103755454.93082415
3420,103755454.93082415
3738,6791184.0
2,4, 1, 4, 0, 8, 0.00,60.00,Wednesday
135,184491004.4643848
3420,184491004.4643848
3738,139683752.67577988
2,4, 1, 4, 0, 9, 0.00,60.00,Wednesday
135,309257276.77714854
3420,309257276.7771486
3738,83095029.78652705
2,4, 1, 4, 0,10, 0.00,60.00,Wednesday
135,272185113.924669
3420,272185113.924669
3738,54652377.40591665
2,4, 1, 4, 0,11, 0.00,60.00,Wednesday
135,266550562.08486056
3420,266550562.0848605
3738,34899162.16140272
2,4, 1, 4, 0,12, 0.00,60.00,Wednesday
135,281292242.9374631
3420,281292242.937463
3738,23607985.38142342
2,4, 1, 4, 0,13, 0.00,60.00,Wednesday
135,285973572.2964015
3420,285973572.29640144
3738,31348798.230013758
2,4, 1, 4, 0,14, 0.00,60.00,Wednesday
135,292517489.6756735
3420,292517489.6756735
3738,26188383.070569854
2,4, 1, 4, 0,15, 0.00,60.00,Wednesday
135,278936139.3508474
3420,278936139.3508474
3738,20127398.59969132
2,4, 1, 4, 0,16, 0.00,60.00,Wednesday
135,276955145.5425564
3420,276955145.54255635
3738,15653031.314340789
2,4, 1, 4, 0,17, 0.00,60.00,Wednesday
135,295961521.3481208
3420,295961521.34812075
3738,25318407.256185487
2,4, 1, 4, 0,18, 0.00,60.00,Wednesday
135,249790251.11624223
3420,249790251.11624217
3738,14864476.667762557
2,4, 1, 4, 0,19, 0.00,60.00,Wednesday
135,132103039.86723197
3420,132103039.86723197
3738,28501881.551320106
2,4, 1, 4, 0,20, 0.00,60.00,Wednesday
135,113569604.38930234
3420,113569604.38930234
3738,41762766.323415086
2,4, 1, 4, 0,21, 0.00,60.00,Wednesday
135,102910895.06207252
3420,102910895.06207252
3738,55301881.79344201
2,4, 1, 4, 0,22, 0.00,60.00,Wednesday
135,98267997.61519502
3420,98267997.61519504
3738,67012577.12525496
2,4, 1, 4, 0,23, 0.00,60.00,Wednesday
135,77772390.65670998
3420,77772390.65670998
3738,6791184.0
2,4, 1, 4, 0,24, 0.00,60.00,Wednesday
135,72442274.24247962
3420,72442274.24247962
3738,6791184.0
2,5, 1, 5, 0, 1, 0.00,60.00,Thursday
135,57996196.7332391
3420,57996196.7332391
3738,6791184.0
2,5, 1, 5, 0, 2, 0.00,60.00,Thursday
135,57609860.1137362
3420,57609860.1137362
3738,6791184.0
2,5, 1, 5, 0, 3, 0.00,60.00,Thursday
135,57609860.1137362
3420,57609860.1137362
3738,6791184.0
2,5, 1, 5, 0, 4, 0.00,60.00,Thursday
135,57609860.1137362
3420,57609860.1137362
3738,6791184.0
2,5, 1, 5, 0, 5, 0.00,60.00,Thursday
135,57609860.1137362
3420,57609860.1137362
3738,6791184.0
2,5, 1, 5, 0, 6, 0.00,60.00,Thursday
135,57609860.1137362
3420,57609860.1137362
3738,6791184.0
2,5, 1, 5, 0, 7, 0.00,60.00,Thursday
135,97735623.67105103
3420,97735623.67105103
3738,6791184.0
2,5, 1, 5, 0, 8, 0.00,60.00,Thursday
135,173100768.07654965
3420,173100768.07654962
3738,110910429.20140871
2,5, 1, 5, 0, 9, 0.00,60.00,Thursday
135,311205020.1220606
3420,311205020.12206054
3738,58843916.725474425
2,5, 1, 5, 0,10, 0.00,60.00,Thursday
135,280658060.50632495
3420,280658060.50632495
3738,15412325.557579566
2,5, 1, 5, 0,11, 0.00,60.00,Thursday
135,279876095.09554434
3420,279876095.09554434
3738,11332836.2691178
2,5, 1, 5, 0,12, 0.00,60.00,Thursday
135,292294718.72825456
3420,292294718.72825456
3738,20890598.102329075
2,5, 1, 5, 0,13, 0.00,60.00,Thursday
135,295353791.6656956
3420,295353791.6656956
3738,31321004.3765677
2,5, 1, 5, 0,14, 0.00,60.00,Thursday
135,319223258.974726
3420,319223258.97472596
3738,26189196.296384312
2,5, 1, 5, 0,15, 0.00,60.00,Thursday
135,312672400.9007701
3420,312672400.90077007
3738,20204811.237831824
2,5, 1, 5, 0,16, 0.00,60.00,Thursday
135,316597340.3147546
3420,316597340.3147545
3738,15641997.033621151
2,5, 1, 5, 0,17, 0.00,60.00,Thursday
135,319340311.9371281
3420,319340311.93712807
3738,25321918.178624112
2,5, 1, 5, 0,18, 0.00,60.00,Thursday
135,245783236.8655186
3420,245783236.8655186
3738,11104752.592050675
2,5, 1, 5, 0,19, 0.00,60.00,Thursday
135,132919744.28767565
3420,132919744.28767565
3738,13944577.741628896
2,5, 1, 5, 0,20, 0.00,60.00,Thursday
135,113569604.38930234
3420,113569604.38930234
3738,28354982.546491858
2,5, 1, 5, 0,21, 0.00,60.00,Thursday
135,102910895.06207252
3420,102910895.06207252
3738,39815667.571056575
2,5, 1, 5, 0,22, 0.00,60.00,Thursday
135,98267997.61519502
3420,98267997.61519504
3738,53897902.32273879
2,5, 1, 5, 0,23, 0.00,60.00,Thursday
135,77772390.65670998
3420,77772390.65670998
3738,6791184.0
2,5, 1, 5, 0,24, 0.00,60.00,Thursday
135,72442274.24247962
3420,72442274.24247962
3738,6791184.0
2,6, 1, 6, 0, 1, 0.00,60.00,Friday
135,57996196.7332391
3420,57996196.7332391
3738,6791184.0
2,6, 1, 6, 0, 2, 0.00,60.00,Friday
135,57609860.1137362
3420,57609860.1137362
3738,6791184.0
2,6, 1, 6, 0, 3, 0.00,60.00,Friday
135,57609860.1137362
3420,57609860.1137362
3738,6791184.0
2,6, 1, 6, 0, 4, 0.00,60.00,Friday
135,57609860.1137362
3420,57609860.1137362
3738,6791184.0
2,6, 1, 6, 0, 5, 0.00,60.00,Friday
135,57609860.1137362
3420,57609860.1137362
3738,6791184.0
2,6, 1, 6, 0, 6, 0.00,60.00,Friday
135,57609860.1137362
3420,57609860.1137362
3738,6791184.0
2,6, 1, 6, 0, 7, 0.00,60.00,Friday
135,100874498.80210993
3420,100874498.80210996
3738,6791184.0
2,6, 1, 6, 0, 8, 0.00,60.00,Friday
135,185012151.70365253
3420,185012151.7036525
3738,115173439.34392655
2,6, 1, 6, 0, 9, 0.00,60.00,Friday
135,311864635.2464785
3420,311864635.2464785
3738,82718883.24284047
2,6, 1, 6, 0,10, 0.00,60.00,Friday
135,270760642.5463952
3420,270760642.5463952
3738,75199093.02771139
2,6, 1, 6, 0,11, 0.00,60.00,Friday
135,263574249.679065
3420,263574249.679065
3738,64362356.05111039
2,6, 1, 6, 0,12, 0.00,60.00,Friday
135,282489219.14205617
3420,282489219.1420561
3738,40890408.34959051
2,6, 1, 6, 0,13, 0.00,60.00,Friday
135,291679706.9357716
3420,291679706.9357716
3738,28107688.715244368
2,6, 1, 6, 0,14, 0.00,60.00,Friday
135,308671350.3757951
3420,308671350.3757951
3738,27356335.104887538
2,6, 1, 6, 0,15, 0.00,60.00,Friday
135,301530339.69325376
3420,301530339.69325376
3738,19100898.233120557
2,6, 1, 6, 0,16, 0.00,60.00,Friday
135,304696593.3533642
3420,304696593.3533641
3738,15649369.115394212
2,6, 1, 6, 0,17, 0.00,60.00,Friday
135,309493379.4927642
3420,309493379.4927641
3738,25324634.014026977
2,6, 1, 6, 0,18, 0.00,60.00,Friday
135,252005436.93270802
3420,252005436.93270805
3738,46958803.33053042
2,6, 1, 6, 0,19, 0.00,60.00,Friday
135,131486257.17165443
3420,131486257.17165443
3738,71752465.51635388
2,6, 1, 6, 0,20, 0.00,60.00,Friday
135,113569604.38930234
3420,113569604.38930234
3738,75354054.68499231
2,6, 1, 6, 0,21, 0.00,60.00,Friday
135,103721887.6060653
3420,103721887.6060653
3738,92943327.67809422
2,6, 1, 6, 0,22, 0.00,60.00,Friday
135,100540602.12163739
3420,100540602.1216374
3738,91981575.97081652
2,6, 1, 6, 0,23, 0.00,60.00,Friday
135,77772390.65670998
3420,77772390.65670998
3738,6791184.0
2,6, 1, 6, 0,24, 0.00,60.00,Friday
135,72442274.24247962
3420,72442274.24247962
3738,6791184.0
2,7, 1, 7, 0, 1, 0.00,60.00,Saturday
135,46745513.81922844
3420,46745513.81922843
3738,6791184.0
2,7, 1, 7, 0, 2, 0.00,60.00,Saturday
135,46359235.70955593
3420,46359235.709555924
3738,6791184.0
2,7, 1, 7, 0, 3, 0.00,60.00,Saturday
135,46359235.70955593
3420,46359235.709555924
3738,6791184.0
2,7, 1, 7, 0, 4, 0.00,60.00,Saturday
135,46359235.70955593
3420,46359235.709555924
3738,6791184.0
2,7, 1, 7, 0, 5, 0.00,60.00,Saturday
135,46359235.70955593
3420,46359235.709555924
3738,6791184.0
2,7, 1, 7, 0, 6, 0.00,60.00,Saturday
135,46359235.70955593
3420,46359235.709555924
3738,6791184.0
2,7, 1, 7, 0, 7, 0.00,60.00,Saturday
135,110561280.09813781
3420,110561280.09813783
3738,6791184.0
2,7, 1, 7, 0, 8, 0.00,60.00,Saturday
135,138475748.02109048
3420,138475748.02109048
3738,126956145.40199202
2,7, 1, 7, 0, 9, 0.00,60.00,Saturday
135,132874862.16839139
3420,132874862.16839136
3738,109118163.61979377
2,7, 1, 7, 0,10, 0.00,60.00,Saturday
135,135156395.79349858
3420,135156395.7934986
3738,95337645.40089162
2,7, 1, 7, 0,11, 0.00,60.00,Saturday
135,128182600.25727639
3420,128182600.25727639
3738,67089820.411321625
2,7, 1, 7, 0,12, 0.00,60.00,Saturday
135,139054610.5584887
3420,139054610.5584887
3738,28275576.95768001
2,7, 1, 7, 0,13, 0.00,60.00,Saturday
135,98688069.02274138
3420,98688069.02274138
3738,17217756.539653774
2,7, 1, 7, 0,14, 0.00,60.00,Saturday
135,86592683.98929238
3420,86592683.98929238
3738,17765234.869882587
2,7, 1, 7, 0,15, 0.00,60.00,Saturday
135,80777988.06353001
3420,80777988.06353001
3738,15065748.739102047
2,7, 1, 7, 0,16, 0.00,60.00,Saturday
135,76233398.28453368
3420,76233398.28453368
3738,21625761.35767615
2,7, 1, 7, 0,17, 0.00,60.00,Saturday
135,78790177.19710016
3420,78790177.19710016
3738,30446628.165137175
2,7, 1, 7, 0,18, 0.00,60.00,Saturday
135,83077160.33306564
3420,83077160.33306564
3738,45590321.97125885
2,7, 1, 7, 0,19, 0.00,60.00,Saturday
135,66276703.53612528
3420,66276703.53612528
3738,6791184.0
2,7, 1, 7, 0,20, 0.00,60.00,Saturday
135,49290893.81922844
3420,49290893.81922844
3738,6791184.0
2,7, 1, 7, 0,21, 0.00,60.00,Saturday
135,48904615.70955593
3420,48904615.70955593
3738,6791184.0
2,7, 1, 7, 0,22, 0.00,60.00,Saturday
135,48904615.70955593
3420,48904615.70955593
3738,6791184.0
2,7, 1, 7, 0,23, 0.00,60.00,Saturday
135,48904615.70955593
3420,48904615.70955593
3738,6791184.0
2,7, 1, 7, 0,24, 0.00,60.00,Saturday
135,48904615.70955593
3420,48904615.70955593
3738,6791184.0
2,8, 1, 8, 0, 1, 0.00,60.00,Sunday
135,46359235.70955593
3420,46359235.709555924
3738,6791184.0
2,8, 1, 8, 0, 2, 0.00,60.00,Sunday
135,46359235.70955593
3420,46359235.709555924
3738,6791184.0
2,8, 1, 8, 0, 3, 0.00,60.00,Sunday
135,46359235.70955593
3420,46359235.709555924
3738,6791184.0
2,8, 1, 8, 0, 4, 0.00,60.00,Sunday
135,46359235.70955593
3420,46359235.709555924
3738,6791184.0
2,8, 1, 8, 0, 5, 0.00,60.00,Sunday
135,46359235.70955593
3420,46359235.709555924
3738,6791184.0
2,8, 1, 8, 0, 6, 0.00,60.00,Sunday
135,46359235.70955593
3420,46359235.709555924
3738,6791184.0
2,8, 1, 8, 0, 7, 0.00,60.00,Sunday
135,66032185.73006148
3420,66032185.73006148
3738,6791184.0
2,8, 1, 8, 0, 8, 0.00,60.00,Sunday
135,53323580.330645084
3420,53323580.330645084
3738,6791184.0
2,8, 1, 8, 0, 9, 0.00,60.00,Sunday
135,46344166.24829911
3420,46344166.24829911
3738,6791184.0
2,8, 1, 8, 0,10, 0.00,60.00,Sunday
135,46288812.51597283
3420,46288812.51597283
3738,6791184.0
2,8, 1, 8, 0,11, 0.00,60.00,Sunday
135,47492002.56196327
3420,47492002.56196327
3738,6791184.0
2,8, 1, 8, 0,12, 0.00,60.00,Sunday
135,51535164.807517484
3420,51535164.807517484
3738,6791184.0
2,8, 1, 8, 0,13, 0.00,60.00,Sunday
135,54258311.31176117
3420,54258311.31176117
3738,6791184.0
2,8, 1, 8, 0,14, 0.00,60.00,Sunday
135,53723535.326250635
3420,53723535.32625064
3738,6791184.0
2,8, 1, 8, 0,15, 0.00,60.00,Sunday
135,54218486.40366943
3420,54218486.40366943
3738,6791184.0
2,8, 1, 8, 0,16, 0.00,60.00,Sunday
135,53536668.678478666
3420,53536668.67847868
3738,6791184.0
2,8, 1, 8, 0,17, 0.00,60.00,Sunday
135,49371975.328517206
3420,49371975.32851721
3738,6791184.0
2,8, 1, 8, 0,18, 0.00,60.00,Sunday
135,66276671.30593526
3420,66276671.30593526
3738,6791184.0
2,8, 1, 8, 0,19, 0.00,60.00,Sunday
135,57105773.81922845
3420,57105773.81922844
3738,6791184.0
2,8, 1, 8, 0,20, 0.00,60.00,Sunday
135,48904615.70955593
3420,48904615.70955593
3738,6791184.0
2,8, 1, 8, 0,21, 0.00,60.00,Sunday
135,48904615.70955593
3420,48904615.70955593
3738,6791184.0
2,8, 1, 8, 0,22, 0.00,60.00,Sunday
135,48904615.70955593
3420,48904615.70955593
3738,6791184.0
2,8, 1, 8, 0,23, 0.00,60.00,Sunday
135,48904615.70955593
3420,48904615.70955593
3738,6791184.0
2,8, 1, 8, 0,24, 0.00,60.00,Sunday
135,48904615.70955593
3420,48904615.70955593
3738,6791184.0
2,9, 1, 9, 0, 1, 0.00,60.00,Monday
135,57609860.1137362
3420,57609860.1137362
3738,6791184.0
2,9, 1, 9, 0, 2, 0.00,60.00,Monday
135,57609860.1137362
3420,57609860.1137362
3738,6791184.0
2,9, 1, 9, 0, 3, 0.00,60.00,Monday
135,57609860.1137362
3420,57609860.1137362
3738,6791184.0
2,9, 1, 9, 0, 4, 0.00,60.00,Monday
135,57609860.1137362
3420,57609860.1137362
3738,6791184.0
2,9, 1, 9, 0, 5, 0.00,60.00,Monday
135,57609860.1137362
3420,57609860.1137362
3738,6791184.0
2,9, 1, 9, 0, 6, 0.00,60.00,Monday
135,57609860.1137362
3420,57609860.1137362
3738,6791184.0
2,9, 1, 9, 0, 7, 0.00,60.00,Monday
135,131649556.82259963
3420,131649556.82259965
3738,6791184.0
2,9, 1, 9, 0, 8, 0.00,60.00,Monday
135,221121983.95288235
3420,221121983.95288232
3738,143754989.8418407
2,9, 1, 9, 0, 9, 0.00,60.00,Monday
135,315220609.13402784
3420,315220609.1340278
3738,86528693.92034401
2,9, 1, 9, 0,10, 0.00,60.00,Monday
135,274690873.5707742
3420,274690873.5707742
3738,59671832.14382878
2,9, 1, 9, 0,11, 0.00,60.00,Monday
135,270247264.3203374
3420,270247264.32033736
3738,22162626.503313713
2,9, 1, 9, 0,12, 0.00,60.00,Monday
135,288725926.86159873
3420,288725926.8615987
3738,20903862.722846154
2,9, 1, 9, 0,13, 0.00,60.00,Monday
135,292258255.9074876
3420,292258255.9074875
3738,31355574.64466193
2,9, 1, 9, 0,14, 0.00,60.00,Monday
135,309445247.6114334
3420,309445247.6114333
3738,26214924.83233454
2,9, 1, 9, 0,15, 0.00,60.00,Monday
135,304488809.4493779
3420,304488809.44937783
3738,20131556.329075716
2,9, 1, 9, 0,16, 0.00,60.00,Monday
135,313182238.51634765
3420,313182238.5163476
3738,15659354.070847142
2,9, 1, 9, 0,17, 0.00,60.00,Monday
135,322794280.36861837
3420,322794280.36861837
3738,25336256.949117057
2,9, 1, 9, 0,18, 0.00,60.00,Monday
135,242743286.19701725
3420,242743286.19701728
3738,11427364.86837006
2,9, 1, 9, 0,19, 0.00,60.00,Monday
135,131907949.28901747
3420,131907949.28901747
3738,26331278.8040509
2,9, 1, 9, 0,20, 0.00,60.00,Monday
135,113570890.19425036
3420,113570890.19425036
3738,34340269.186099954
2,9, 1, 9, 0,21, 0.00,60.00,Monday
135,103761922.97987653
3420,103761922.97987653
3738,24251875.18156903
2,9, 1, 9, 0,22, 0.00,60.00,Monday
135,100486846.93508881
3420,100486846.93508883
3738,31295056.14799781
2,9, 1, 9, 0,23, 0.00,60.00,Monday
135,77772390.65670998
3420,77772390.65670998
3738,6791184.0
2,9, 1, 9, 0,24, 0.00,60.00,Monday
135,72442274.24247962
3420,72442274.24247962
3738,6791184.0
2,10, 1,10, 0, 1, 0.00,60.00,Tuesday
135,57996196.7332391
3420,57996196.7332391
3738,6791184.0
2,10, 1,10, 0, 2, 0.00,60.00,Tuesday
135,57609860.1137362
3420,57609860.1137362
3738,6791184.0
2,10, 1,10, 0, 3, 0.00,60.00,Tuesday
135,57609860.1137362
3420,57609860.1137362
3738,6791184.0
2,10, 1,10, 0, 4, 0.00,60.00,Tuesday
135,57609860.1137362
3420,57609860.1137362
3738,6791184.0
2,10, 1,10, 0, 5, 0.00,60.00,Tuesday
135,57609860.1137362
3420,57609860.1137362
3738,6791184.0
2,10, 1,10, 0, 6, 0.00,60.00,Tuesday
135,57609860.1137362
3420,57609860.1137362
3738,6791184.0
2,10, 1,10, 0, 7, 0.00,60.00,Tuesday
135,111123389.97111806
3420,111123389.97111806
3738,6791184.0
2,10, 1,10, 0, 8, 0.00,60.00,Tuesday
135,191589394.3054554
3420,191589394.3054554
3738,142230520.4405244
2,10, 1,10, 0, 9, 0.00,60.00,Tuesday
135,308677146.41150695
3420,308677146.41150695
3738,91213410.87216155
2,10, 1,10, 0,10, 0.00,60.00,Tuesday
135,270035163.0944721
3420,270035163.09447205
3738,69771846.37677044
2,10, 1,10, 0,11, 0.00,60.00,Tuesday
135,262638591.74904847
3420,262638591.7490484
3738,59660825.028278925
2,10, 1,10, 0,12, 0.00,60.00,Tuesday
135,272408886.0989692
3420,272408886.09896916
3738,70183871.92178178
2,10, 1,10, 0,13, 0.00,60.00,Tuesday
135,289206717.87517637
3420,289206717.87517637
3738,51840132.85035092
2,10, 1,10, 0,14, 0.00,60.00,Tuesday
135,288687185.44733787
3420,288687185.44733787
3738,32984172.651980326
2,10, 1,10, 0,15, 0.00,60.00,Tuesday
135,280668794.049604
3420,280668794.04960394
3738,16048783.747261431
2,10, 1,10, 0,16, 0.00,60.00,Tuesday
135,282582918.35635287
3420,282582918.35635287
3738,17475806.10345647
2,10, 1,10, 0,17, 0.00,60.00,Tuesday
135,294721933.7822715
3420,294721933.7822715
3738,23438311.961484972
2,10, 1,10, 0,18, 0.00,60.00,Tuesday
135,250166401.76893765
3420,250166401.76893768
3738,34178554.800528646
2,10, 1,10, 0,19, 0.00,60.00,Tuesday
135,130964982.47518554
3420,130964982.47518554
3738,71327469.18026796
2,10, 1,10, 0,20, 0.00,60.00,Tuesday
135,113593490.83360134
3420,113593490.83360134
3738,75478050.35595356
2,10, 1,10, 0,21, 0.00,60.00,Tuesday
135,103954446.72854936
3420,103954446.72854939
3738,85038640.10716988
2,10, 1,10, 0,22, 0.00,60.00,Tuesday
135,102366822.30344595
3420,102366822.30344595
3738,97957346.75170946
2,10, 1,10, 0,23, 0.00,60.00,Tuesday
135,77772390.65670998
3420,77772390.65670998
3738,6791184.0
2,10, 1,10, 0,24, 0.00,60.00,Tuesday
135,72442274.24247962
3420,72442274.24247962
3738,6791184.0
2,11, 1,11, 0, 1, 0.00,60.00,Wednesday
135,57996196.7332391
3420,57996196.7332391
3738,6791184.0
2,11, 1,11, 0, 2, 0.00,60.00,Wednesday
135,57609860.1137362
3420,57609860.1137362
3738,6791184.0
2,11, 1,11, 0, 3, 0.00,60.00,Wednesday
135,57609860.1137362
3420,57609860.1137362
3738,6791184.0
2,11, 1,11, 0, 4, 0.00,60.00,Wednesday
135,57609860.1137362
3420,57609860.1137362
3738,6791184.0
2,11, 1,11, 0, 5, 0.00,60.00,Wednesday
135,57609860.1137362
3420,57609860.1137362
3738,6791184.0
2,11, 1,11, 0, 6, 0.00,60.00,Wednesday
135,57609860.1137362
3420,57609860.1137362
3738,6791184.0
2,11, 1,11, 0, 7, 0.00,60.00,Wednesday
135,106323508.12548082
3420,106323508.12548083
3738,6791184.0
2,11, 1,11, 0, 8, 0.00,60.00,Wednesday
135,184839990.5818624
3420,184839990.58186242
3738,83369903.48253083
2,11, 1,11, 0, 9, 0.00,60.00,Wednesday
135,303349225.48852783
3420,303349225.4885279
3738,57808361.33155596
2,11, 1,11, 0,10, 0.00,60.00,Wednesday
135,267374368.28969532
3420,267374368.2896953
3738,42653289.09450646
2,11, 1,11, 0,11, 0.00,60.00,Wednesday
135,261916668.97911817
3420,261916668.97911817
3738,16094590.199220402
2,11, 1,11, 0,12, 0.00,60.00,Wednesday
135,270672078.41415787
3420,270672078.41415787
3738,26225809.281601913
2,11, 1,11, 0,13, 0.00,60.00,Wednesday
135,273547927.4719276
3420,273547927.4719276
3738,37271380.20914151
2,11, 1,11, 0,14, 0.00,60.00,Wednesday
135,273992416.71632504
3420,273992416.71632504
3738,28372013.927973438
2,11, 1,11, 0,15, 0.00,60.00,Wednesday
135,259973207.44503838
3420,259973207.44503838
3738,20141617.152989805
2,11, 1,11, 0,16, 0.00,60.00,Wednesday
135,260270817.4321176
3420,260270817.43211758
3738,23250574.59585718
2,11, 1,11, 0,17, 0.00,60.00,Wednesday
135,277387713.879533
3420,277387713.87953293
3738,51747690.345051005
2,11, 1,11, 0,18, 0.00,60.00,Wednesday
135,241897105.96698335
3420,241897105.96698335
3738,56514601.22701858
2,11, 1,11, 0,19, 0.00,60.00,Wednesday
135,131660413.85927525
3420,131660413.85927525
3738,82189567.32698876
2,11, 1,11, 0,20, 0.00,60.00,Wednesday
135,113654284.99871053
3420,113654284.99871053
3738,91624357.90314403
2,11, 1,11, 0,21, 0.00,60.00,Wednesday
135,104396648.99577037
3420,104396648.99577038
3738,91252375.60154593
2,11, 1,11, 0,22, 0.00,60.00,Wednesday
135,101948176.86574519
3420,101948176.8657452
3738,102052356.34796289
2,11, 1,11, 0,23, 0.00,60.00,Wednesday
135,77772390.65670998
3420,77772390.65670998
3738,6791184.0
2,11, 1,11, 0,24, 0.00,60.00,Wednesday
135,72442274.24247962
3420,72442274.24247962
3738,6791184.0
2,12, 1,12, 0, 1, 0.00,60.00,Thursday
135,57996196.7332391
3420,57996196.7332391
3738,6791184.0
2,12, 1,12, 0, 2, 0.00,60.00,Thursday
135,57609860.1137362
3420,57609860.1137362
3738,6791184.0
2,12, 1,12, 0, 3, 0.00,60.00,Thursday
135,57609860.1137362
3420,57609860.1137362
3738,6791184.0
2,12, 1,12, 0, 4, 0.00,60.00,Thursday
135,57609860.1137362
3420,57609860.1137362
3738,6791184.0
2,12, 1,12, 0, 5, 0.00,60.00,Thursday
135,57609860.1137362
3420,57609860.1137362
3738,6791184.0
2,12, 1,12, 0, 6, 0.00,60.00,Thursday
135,57609860.1137362
3420,57609860.1137362
3738,6791184.0
2,12, 1,12, 0, 7, 0.00,60.00,Thursday
135,109510348.76295422
3420,109510348.76295422
3738,6791184.0
2,12, 1,12, 0, 8, 0.00,60.00,Thursday
135,189770618.99238464
3420,189770618.9923846
3738,131562543.624886
2,12, 1,12, 0, 9, 0.00,60.00,Thursday
135,310590311.8117323
3420,310590311.8117323
3738,85738650.97372302
2,12, 1,12, 0,10, 0.00,60.00,Thursday
135,269376639.4082019
3420,269376639.4082019
3738,73328912.11461373
2,12, 1,12, 0,11, 0.00,60.00,Thursday
135,263224036.38378406
3420,263224036.383784
3738,56786724.21740376
2,12, 1,12, 0,12, 0.00,60.00,Thursday
135,275358126.7590675
3420,275358126.7590675
3738,50247236.85360464
2,12, 1,12, 0,13, 0.00,60.00,Thursday
135,292305433.81990635
3420,292305433.8199063
3738,42506993.29936486
2,12, 1,12, 0,14, 0.00,60.00,Thursday
135,286147775.4002302
3420,286147775.4002302
3738,37580519.484182306
2,12, 1,12, 0,15, 0.00,60.00,Thursday
135,270600150.8861068
3420,270600150.8861067
3738,19129027.015397437
2,12, 1,12, 0,16, 0.00,60.00,Thursday
135,270432144.01896805
3420,270432144.018968
3738,27044029.06277714
2,12, 1,12, 0,17, 0.00,60.00,Thursday
135,289017897.85567
3420,289017897.85567
3738,34462522.47303484
2,12, 1,12, 0,18, 0.00,60.00,Thursday
135,250854975.85736918
3420,250854975.85736918
3738,49699229.31340471
2,12, 1,12, 0,19, 0.00,60.00,Thursday
135,132583210.47845569
3420,132583210.47845569
3738,73634245.58061096
2,12, 1,12, 0,20, 0.00,60.00,Thursday
135,113569604.38930234
3420,113569604.38930234
3738,71409706.86004089
2,12, 1,12, 0,21, 0.00,60.00,Thursday
135,103895661.28353591
3420,103895661.28353591
3738,75125364.32228528
2,12, 1,12, 0,22, 0.00,60.00,Thursday
135,100983357.48586723
3420,100983357.48586726
3738,77698481.08011371
2,12, 1,12, 0,23, 0.00,60.00,Thursday
135,77772390.65670998
3420,77772390.65670998
3738,6791184.0
2,12, 1,12, 0,24, 0.00,60.00,Thursday
135,72442274.24247962
3420,72442274.24247962
3738,6791184.0
2,13, 1,13, 0, 1, 0.00,60.00,Friday
135,57996196.7332391
3420,57996196.7332391
3738,6791184.0