Program Version,EnergyPlus, Version 9.6.0-f420c06a69, YMD=2022.07.16 14:47
1,5,Environment Title[],Latitude[deg],Longitude[deg],Time Zone[],Elevation[m]
2,8,Day of Simulation[],Month[],Day of Month[],DST Indicator[1=yes 0=no],Hour[],StartMinute[],EndMinute[],DayType
3,5,Cumulative Day of Simulation[],Month[],Day of Month[],DST Indicator[1=yes 0=no],DayType  ! When Daily Meters Requested
4,2,Cumulative Days of Simulation[],Month[]  ! When Monthly Meters Requested
5,1,Cumulative Days of Simulation[] ! When Run Period Meters Requested
6,1,Calendar Year of Simulation[] ! When Annual Meters Requested
135,1,Electricity:Facility [J] !Hourly
3420,1,ElectricityNet:Facility [J] !Hourly
3738,1,NaturalGas:Facility [J] !Hourly
End of Data Dictionary
1,RUNPERIOD 1,  35.04,-106.62,  -7.00,1619.00
2,1, 1, 1, 0, 1, 0.00,60.00,Holiday
135,46359074.93593144
3420,46359074.93593143
3738,6791184.0
2,1, 1, 1, 0, 2, 0.00,60.00,Holiday
135,46359235.70955593
3420,46359235.709555924
3738,6791184.0
2,1, 1, 1, 0, 3, 0.00,60.00,Holiday
135,46359235.70955593
3420,46359235.709555924
3738,6791184.0
2,1, 1, 1, 0, 4, 0.00,60.00,Holiday
135,46359235.70955593
3420,46359235.709555924
3738,6791184.0
2,1, 1, 1, 0, 5, 0.00,60.00,Holiday
135,46359235.70955593
3420,46359235.709555924
3738,6791184.0
2,1, 1, 1, 0, 6, 0.00,60.00,Holiday
135,46359235.70955593
3420,46359235.709555924
3738,6791184.0
2,1, 1, 1, 0, 7, 0.00,60.00,Holiday
135,66032185.73006148
3420,66032185.73006148
3738,6791184.0
2,1, 1, 1, 0, 8, 0.00,60.00,Holiday
135,50074623.774579875
3420,50074623.774579875
3738,6791184.0
2,1, 1, 1, 0, 9, 0.00,60.00,Holiday
135,46351708.9331394
3420,46351708.9331394
3738,6791184.0
2,1, 1, 1, 0,10, 0.00,60.00,Holiday
135,46288813.17904917
3420,46288813.179049164
3738,6791184.0
2,1, 1, 1, 0,11, 0.00,60.00,Holiday
135,51149014.50787013
3420,51149014.50787013
3738,6791184.0
2,1, 1, 1, 0,12, 0.00,60.00,Holiday
135,53542591.30173427
3420,53542591.30173427
3738,6791184.0
2,1, 1, 1, 0,13, 0.00,60.00,Holiday
135,54827857.64153222
3420,54827857.64153222
3738,6791184.0
2,1, 1, 1, 0,14, 0.00,60.00,Holiday
135,61196507.52122828
3420,61196507.5212283
3738,6791184.0
2,1, 1, 1, 0,15, 0.00,60.00,Holiday
135,67239153.60782859
3420,67239153.60782859
3738,6791184.0
2,1, 1, 1, 0,16, 0.00,60.00,Holiday
135,64721412.807741076
3420,64721412.80774109
3738,6791184.0
2,1, 1, 1, 0,17, 0.00,60.00,Holiday
135,55473596.479658276
3420,55473596.479658276
3738,6791184.0
2,1, 1, 1, 0,18, 0.00,60.00,Holiday
135,66905826.86107348
3420,66905826.86107348
3738,6791184.0
2,1, 1, 1, 0,19, 0.00,60.00,Holiday
135,57105773.81922845
3420,57105773.81922844
3738,6791184.0
2,1, 1, 1, 0,20, 0.00,60.00,Holiday
135,48904615.70955593
3420,48904615.70955593
3738,6791184.0
2,1, 1, 1, 0,21, 0.00,60.00,Holiday
135,48904615.70955593
3420,48904615.70955593
3738,6791184.0
2,1, 1, 1, 0,22, 0.00,60.00,Holiday
135,48904615.70955593
3420,48904615.70955593
3738,6791184.0
2,1, 1, 1, 0,23, 0.00,60.00,Holiday
135,48904615.70955593
3420,48904615.70955593
3738,6791184.0
2,1, 1, 1, 0,24, 0.00,60.00,Holiday
135,48904615.70955593
3420,48904615.70955593
3738,6791184.0
2,2, 1, 2, 0, 1, 0.00,60.00,Monday
135,57609860.1137362
3420,57609860.1137362
3738,6791184.0
2,2, 1, 2, 0, 2, 0.00,60.00,Monday
135,57609860.1137362
3420,57609860.1137362
3738,6791184.0
2,2, 1, 2, 0, 3, 0.00,60.00,Monday
135,57609860.1137362
3420,57609860.1137362
3738,6791184.0
2,2, 1, 2, 0, 4, 0.00,60.00,Monday
135,57609860.1137362
3420,57609860.1137362
3738,6791184.0
2,2, 1, 2, 0, 5, 0.00,60.00,Monday
135,57609860.1137362
3420,57609860.1137362
3738,6791184.0
2,2, 1, 2, 0, 6, 0.00,60.00,Monday
135,57609860.1137362
3420,57609860.1137362
3738,6791184.0
2,2, 1, 2, 0, 7, 0.00,60.00,Monday
135,127996825.63454857
3420,127996825.63454857
3738,6791184.0
2,2, 1, 2, 0, 8, 0.00,60.00,Monday
135,215776918.25572556
3420,215776918.25572553
3738,138020718.205081
2,2, 1, 2, 0, 9, 0.00,60.00,Monday
135,308779831.98790205
3420,308779831.98790205
3738,82873177.66038454
2,2, 1, 2, 0,10, 0.00,60.00,Monday
135,272391633.6877966
3420,272391633.68779653
3738,53951717.89646106
2,2, 1, 2, 0,11, 0.00,60.00,Monday
135,270626858.73905873
3420,270626858.73905873
3738,16290746.029742379
2,2, 1, 2, 0,12, 0.00,60.00,Monday
135,289695713.59204376
3420,289695713.59204376
3738,20876788.629584327
2,2, 1, 2, 0,13, 0.00,60.00,Monday
135,291132855.59700644
3420,291132855.59700644
3738,31334466.06780298
2,2, 1, 2, 0,14, 0.00,60.00,Monday
135,308021486.08789706
3420,308021486.08789706
3738,26165957.600102253
2,2, 1, 2, 0,15, 0.00,60.00,Monday
135,301222934.61526537
3420,301222934.6152653
3738,16608219.527592774
2,2, 1, 2, 0,16, 0.00,60.00,Monday
135,306260640.67507416
3420,306260640.67507416
3738,19132384.55082509
2,2, 1, 2, 0,17, 0.00,60.00,Monday
135,303775473.3403636
3420,303775473.34036356
3738,20696667.15605069
2,2, 1, 2, 0,18, 0.00,60.00,Monday
135,238144633.47194412
3420,238144633.4719441
3738,19995254.898005724
2,2, 1, 2, 0,19, 0.00,60.00,Monday
135,130915817.59055667
3420,130915817.59055667
3738,46965666.73843971
2,2, 1, 2, 0,20, 0.00,60.00,Monday
135,114591120.3768551
3420,114591120.3768551
3738,60485811.603654675
2,2, 1, 2, 0,21, 0.00,60.00,Monday
135,105863576.09982648
3420,105863576.09982648
3738,74237317.72791636
2,2, 1, 2, 0,22, 0.00,60.00,Monday
135,103011114.57527736
3420,103011114.57527736
3738,75836107.61545125
2,2, 1, 2, 0,23, 0.00,60.00,Monday
135,77772390.65670998
3420,77772390.65670998
3738,6791184.0
2,2, 1, 2, 0,24, 0.00,60.00,Monday
135,72442274.24247962
3420,72442274.24247962
3738,6791184.0
2,3, 1, 3, 0, 1, 0.00,60.00,Tuesday
135,57996196.7332391
3420,57996196.7332391
3738,6791184.0
2,3, 1, 3, 0, 2, 0.00,60.00,Tuesday
135,57609860.1137362
3420,57609860.1137362
3738,6791184.0
2,3, 1, 3, 0, 3, 0.00,60.00,Tuesday
135,57609860.1137362
3420,57609860.1137362
3738,6791184.0
2,3, 1, 3, 0, 4, 0.00,60.00,Tuesday
135,57609860.1137362
3420,57609860.1137362
3738,6791184.0
2,3, 1, 3, 0, 5, 0.00,60.00,Tuesday
135,57609860.1137362
3420,57609860.1137362
3738,6791184.0
2,3, 1, 3, 0, 6, 0.00,60.00,Tuesday
135,57609860.1137362
3420,57609860.1137362
3738,6791184.0
2,3, 1, 3, 0, 7, 0.00,60.00,Tuesday
135,106931257.37472215
3420,106931257.37472212
3738,6791184.0
2,3, 1, 3, 0, 8, 0.00,60.00,Tuesday
135,184734841.1423446
3420,184734841.1423446
3738,120832959.7297068
2,3, 1, 3, 0, 9, 0.00,60.00,Tuesday
135,312265575.62436616
3420,312265575.62436616
3738,68892671.80928904
2,3, 1, 3, 0,10, 0.00,60.00,Tuesday
135,279812349.24392164
3420,279812349.24392164
3738,27777781.23698724
2,3, 1, 3, 0,11, 0.00,60.00,Tuesday
135,278334900.0313619
3420,278334900.0313619
3738,9295933.261404604
2,3, 1, 3, 0,12, 0.00,60.00,Tuesday
135,290684622.63813865
3420,290684622.63813865
3738,23542259.622301124
2,3, 1, 3, 0,13, 0.00,60.00,Tuesday
135,290073427.60944575
3420,290073427.60944575
3738,31314670.33408197
2,3, 1, 3, 0,14, 0.00,60.00,Tuesday
135,311174944.21262676
3420,311174944.21262676
3738,26173987.99966827
2,3, 1, 3, 0,15, 0.00,60.00,Tuesday
135,304966823.9567958
3420,304966823.95679575
3738,20136318.258841217
2,3, 1, 3, 0,16, 0.00,60.00,Tuesday
135,309054752.76813424
3420,309054752.7681342
3738,15643327.510827746
2,3, 1, 3, 0,17, 0.00,60.00,Tuesday
135,309940042.67176265
3420,309940042.67176265
3738,20680908.056054913
2,3, 1, 3, 0,18, 0.00,60.00,Tuesday
135,242680258.7493111
3420,242680258.7493111
3738,16251871.944199989
2,3, 1, 3, 0,19, 0.00,60.00,Tuesday
135,132069713.17156494
3420,132069713.17156494
3738,26106541.95556266
2,3, 1, 3, 0,20, 0.00,60.00,Tuesday
135,113569604.38930234
3420,113569604.38930234
3738,44462398.210499495
2,3, 1, 3, 0,21, 0.00,60.00,Tuesday
135,102910895.06207252
3420,102910895.06207252
3738,53926673.13748605
2,3, 1, 3, 0,22, 0.00,60.00,Tuesday
135,98770175.473992
3420,98770175.47399203
3738,83388411.44147202
2,3, 1, 3, 0,23, 0.00,60.00,Tuesday
135,77772390.65670998
3420,77772390.65670998
3738,6791184.0
2,3, 1, 3, 0,24, 0.00,60.00,Tuesday
135,72442274.24247962
3420,72442274.24247962
3738,6791184.0
2,4, 1, 4, 0, 1, 0.00,60.00,Wednesday
135,57996196.7332391
3420,57996196.7332391
3738,6791184.0
2,4, 1, 4, 0, 2, 0.00,60.00,Wednesday
135,57609860.1137362
3420,57609860.1137362
3738,6791184.0
2,4, 1, 4, 0, 3, 0.00,60.00,Wednesday
135,57609860.1137362
3420,57609860.1137362
3738,6791184.0
2,4, 1, 4, 0, 4, 0.00,60.00,Wednesday
135,57609860.1137362
3420,57609860.1137362
3738,6791184.0
2,4, 1, 4, 0, 5, 0.00,60.00,Wednesday
135,57609860.1137362
3420,57609860.1137362
3738,6791184.0
2,4, 1, 4, 0, 6, 0.00,60.00,Wednesday
135,57609860.1137362
3420,57609860.1137362
3738,6791184.0
2,4, 1, 4, 0, 7, 0.00,60.00,Wednesday
135,103755454.93082415
3420,103755454.93082415
3738,6791184.0
2,4, 1, 4, 0, 8, 0.00,60.00,Wednesday
135,184491004.4643848
3420,184491004.4643848
3738,139683752.67577988
2,4, 1, 4, 0, 9, 0.00,60.00,Wednesday
135,309257276.77714854
3420,309257276.7771486
3738,83095029.78652705
2,4, 1, 4, 0,10, 0.00,60.00,Wednesday
135,272185113.924669
3420,272185113.924669
3738,54652377.40591665
2,4, 1, 4, 0,11, 0.00,60.00,Wednesday
135,266550562.08486056
3420,266550562.0848605
3738,34899162.16140272
2,4, 1, 4, 0,12, 0.00,60.00,Wednesday
135,281292242.9374631
3420,281292242.937463
3738,23607985.38142342
2,4, 1, 4, 0,13, 0.00,60.00,Wednesday
135,285973572.2964015
3420,285973572.29640144
3738,31348798.230013758
2,4, 1, 4, 0,14, 0.00,60.00,Wednesday
135,292517489.6756735
3420,292517489.6756735
3738,26188383.070569854
2,4, 1, 4, 0,15, 0.00,60.00,Wednesday
135,278936139.3508474
3420,278936139.3508474
3738,20127398.59969132
2,4, 1, 4, 0,16, 0.00,60.00,Wednesday
135,276955145.5425564
3420,276955145.54255635
3738,15653031.314340789
2,4, 1, 4, 0,17, 0.00,60.00,Wednesday
135,295961521.3481208
3420,295961521.34812075
3738,25318407.256185487
2,4, 1, 4, 0,18, 0.00,60.00,Wednesday
135,249790251.11624223
3420,249790251.11624217
3738,14864476.667762557
2,4, 1, 4, 0,19, 0.00,60.00,Wednesday
135,132103039.86723197
3420,132103039.86723197
3738,28501881.551320106
2,4, 1, 4, 0,20, 0.00,60.00,Wednesday
135,113569604.38930234
3420,113569604.38930234
3738,41762766.323415086
2,4, 1, 4, 0,21, 0.00,60.00,Wednesday
135,102910895.06207252
3420,102910895.06207252
3738,55301881.79344201
2,4, 1, 4, 0,22, 0.00,60.00,Wednesday
135,98267997.61519502
3420,98267997.61519504
3738,67012577.12525496
2,4, 1, 4, 0,23, 0.00,60.00,Wednesday
135,77772390.65670998
3420,77772390.65670998
3738,6791184.0
2,4, 1, 4, 0,24, 0.00,60.00,Wednesday
135,72442274.24247962
3420,72442274.24247962
3738,6791184.0
2,5, 1, 5, 0, 1, 0.00,60.00,Thursday
135,57996196.7332391
3420,57996196.7332391
3738,6791184.0
2,5, 1, 5, 0, 2, 0.00,60.00,Thursday
135,57609860.1137362
3420,57609860.1137362
3738,6791184.0
2,5, 1, 5, 0, 3, 0.00,60.00,Thursday
135,57609860.1137362
3420,57609860.1137362
3738,6791184.0
2,5, 1, 5, 0, 4, 0.00,60.00,Thursday
135,57609860.1137362
3420,57609860.1137362
3738,6791184.0
2,5, 1, 5, 0, 5, 0.00,60.00,Thursday
135,57609860.1137362
3420,57609860.1137362
3738,6791184.0
2,5, 1, 5, 0, 6, 0.00,60.00,Thursday
135,57609860.1137362
3420,57609860.1137362
3738,6791184.0
2,5, 1, 5, 0, 7, 0.00,60.00,Thursday
135,97735623.67105103
3420,97735623.67105103
3738,6791184.0
2,5, 1, 5, 0, 8, 0.00,60.00,Thursday
135,173100768.07654965
3420,173100768.07654962
3738,110910429.20140871
2,5, 1, 5, 0, 9, 0.00,60.00,Thursday
135,311205020.1220606
3420,311205020.12206054
3738,58843916.725474425
2,5, 1, 5, 0,10, 0.00,60.00,Thursday
135,280658060.50632495
3420,280658060.50632495
3738,15412325.557579566
2,5, 1, 5, 0,11, 0.00,60.00,Thursday
135,279876095.09554434
3420,279876095.09554434
3738,11332836.2691178
2,5, 1, 5, 0,12, 0.00,60.00,Thursday
135,292294718.72825456
3420,292294718.72825456
3738,20890598.102329075
2,5, 1, 5, 0,13, 0.00,60.00,Thursday
135,295353791.6656956
3420,295353791.6656956
3738,31321004.3765677
2,5, 1, 5, 0,14, 0.00,60.00,Thursday
135,319223258.974726
3420,319223258.97472596
3738,26189196.296384312
2,5, 1, 5, 0,15, 0.00,60.00,Thursday
135,312672400.9007701
3420,312672400.90077007
3738,20204811.237831824
2,5, 1, 5, 0,16, 0.00,60.00,Thursday
135,316597340.3147546
3420,316597340.3147545
3738,15641997.033621151
2,5, 1, 5, 0,17, 0.00,60.00,Thursday
135,319340311.9371281
3420,319340311.93712807
3738,25321918.178624112
2,5, 1, 5, 0,18, 0.00,60.00,Thursday
135,245783236.8655186
3420,245783236.8655186
3738,11104752.592050675
2,5, 1, 5, 0,19, 0.00,60.00,Thursday
135,132919744.28767565
3420,132919744.28767565
3738,13944577.741628896
2,5, 1, 5, 0,20, 0.00,60.00,Thursday
135,113569604.38930234
3420,113569604.38930234
3738,28354982.546491858
2,5, 1, 5, 0,21, 0.00,60.00,Thursday
135,102910895.06207252
3420,102910895.06207252
3738,39815667.571056575
2,5, 1, 5, 0,22, 0.00,60.00,Thursday
135,98267997.61519502
3420,98267997.61519504
3738,53897902.32273879
2,5, 1, 5, 0,23, 0.00,60.00,Thursday
135,77772390.65670998
3420,77772390.65670998
3738,6791184.0
2,5, 1, 5, 0,24, 0.00,60.00,Thursday
135,72442274.24247962
3420,72442274.24247962
3738,6791184.0
2,6, 1, 6, 0, 1, 0.00,60.00,Friday
135,57996196.7332391
3420,57996196.7332391
3738,6791184.0
2,6, 1, 6, 0, 2, 0.00,60.00,Friday
135,57609860.1137362
3420,57609860.1137362
3738,6791184.0
2,6, 1, 6, 0, 3, 0.00,60.00,Friday
135,57609860.1137362
3420,57609860.1137362
3738,6791184.0
2,6, 1, 6, 0, 4, 0.00,60.00,Friday
135,57609860.1137362
3420,57609860.1137362
3738,6791184.0
2,6, 1, 6, 0, 5, 0.00,60.00,Friday
135,57609860.1137362
3420,57609860.1137362
3738,6791184.0
2,6, 1, 6, 0, 6, 0.00,60.00,Friday
135,57609860.1137362
3420,57609860.1137362
3738,6791184.0
2,6, 1, 6, 0, 7, 0.00,60.00,Friday
135,100874498.80210993
3420,100874498.80210996
3738,6791184.0
2,6, 1, 6, 0, 8, 0.00,60.00,Friday
135,185012151.70365253
3420,185012151.7036525
3738,115173439.34392655
2,6, 1, 6, 0, 9, 0.00,60.00,Friday
135,311864635.2464785
3420,311864635.2464785
3738,82718883.24284047
2,6, 1, 6, 0,10, 0.00,60.00,Friday
135,270760642.5463952
3420,270760642.5463952
3738,75199093.02771139
2,6, 1, 6, 0,11, 0.00,60.00,Friday
135,263574249.679065
3420,263574249.679065
3738,64362356.05111039
2,6, 1, 6, 0,12, 0.00,60.00,Friday
135,282489219.14205617
3420,282489219.1420561
3738,40890408.34959051
2,6, 1, 6, 0,13, 0.00,60.00,Friday
135,291679706.9357716
3420,291679706.9357716
3738,28107688.715244368
2,6, 1, 6, 0,14, 0.00,60.00,Friday
135,308671350.3757951
3420,308671350.3757951
3738,27356335.104887538
2,6, 1, 6, 0,15, 0.00,60.00,Friday
135,301530339.69325376
3420,301530339.69325376
3738,19100898.233120557
2,6, 1, 6, 0,16, 0.00,60.00,Friday
135,304696593.3533642
3420,304696593.3533641
3738,15649369.115394212
2,6, 1, 6, 0,17, 0.00,60.00,Friday
135,309493379.4927642
3420,309493379.4927641
3738,25324634.014026977
2,6, 1, 6, 0,18, 0.00,60.00,Friday
135,252005436.93270802
3420,252005436.93270805
3738,46958803.33053042
2,6, 1, 6, 0,19, 0.00,60.00,Friday
135,131486257.17165443
3420,131486257.17165443
3738,71752465.51635388
2,6, 1, 6, 0,20, 0.00,60.00,Friday
135,113569604.38930234
3420,113569604.38930234
3738,75354054.68499231
2,6, 1, 6, 0,21, 0.00,60.00,Friday
135,103721887.6060653
3420,103721887.6060653
3738,92943327.67809422
2,6, 1, 6, 0,22, 0.00,60.00,Friday
135,100540602.12163739
3420,100540602.1216374
3738,91981575.97081652
2,6, 1, 6, 0,23, 0.00,60.00,Friday
135,77772390.65670998
3420,77772390.65670998
3738,6791184.0
2,6, 1, 6, 0,24, 0.00,60.00,Friday
135,72442274.24247962
3420,72442274.24247962
3738,6791184.0
2,7, 1, 7, 0, 1, 0.00,60.00,Saturday
135,46745513.81922844
3420,46745513.81922843
3738,6791184.0
2,7, 1, 7, 0, 2, 0.00,60.00,Saturday
135,46359235.70955593
3420,46359235.709555924
3738,6791184.0
2,7, 1, 7, 0, 3, 0.00,60.00,Saturday
135,46359235.70955593
3420,46359235.709555924
3738,6791184.0
2,7, 1, 7, 0, 4, 0.00,60.00,Saturday
135,46359235.70955593
3420,46359235.709555924
3738,6791184.0
2,7, 1, 7, 0, 5, 0.00,60.00,Saturday
135,46359235.70955593
3420,46359235.709555924
3738,6791184.0
2,7, 1, 7, 0, 6, 0.00,60.00,Saturday
135,46359235.70955593
3420,46359235.709555924
3738,6791184.0
2,7, 1, 7, 0, 7, 0.00,60.00,Saturday
135,110561280.09813781
3420,110561280.09813783
3738,6791184.0
2,7, 1, 7, 0, 8, 0.00,60.00,Saturday
135,138475748.02109048
3420,138475748.02109048
3738,126956145.40199202
2,7, 1, 7, 0, 9, 0.00,60.00,Saturday
135,132874862.16839139
3420,132874862.16839136
3738,109118163.61979377
2,7, 1, 7, 0,10, 0.00,60.00,Saturday
135,135156395.79349858
3420,135156395.7934986
3738,95337645.40089162
2,7, 1, 7, 0,11, 0.00,60.00,Saturday
135,128182600.25727639
3420,128182600.25727639
3738,67089820.411321625
2,7, 1, 7, 0,12, 0.00,60.00,Saturday
135,139054610.5584887
3420,139054610.5584887
3738,28275576.95768001
2,7, 1, 7, 0,13, 0.00,60.00,Saturday
135,98688069.02274138
3420,98688069.02274138
3738,17217756.539653774
2,7, 1, 7, 0,14, 0.00,60.00,Saturday
135,86592683.98929238
3420,86592683.98929238
3738,17765234.869882587
2,7, 1, 7, 0,15, 0.00,60.00,Saturday
135,80777988.06353001
3420,80777988.06353001
3738,15065748.739102047
2,7, 1, 7, 0,16, 0.00,60.00,Saturday
135,76233398.28453368
3420,76233398.28453368
3738,21625761.35767615
2,7, 1, 7, 0,17, 0.00,60.00,Saturday
135,78790177.19710016
3420,78790177.19710016
3738,30446628.165137175
2,7, 1, 7, 0,18, 0.00,60.00,Saturday
135,83077160.33306564
3420,83077160.33306564
3738,45590321.97125885
2,7, 1, 7, 0,19, 0.00,60.00,Saturday
135,66276703.53612528
3420,66276703.53612528
3738,6791184.0
2,7, 1, 7, 0,20, 0.00,60.00,Saturday
135,49290893.81922844
3420,49290893.81922844
3738,6791184.0
2,7, 1, 7, 0,21, 0.00,60.00,Saturday
135,48904615.70955593
3420,48904615.70955593
3738,6791184.0
2,7, 1, 7, 0,22, 0.00,60.00,Saturday
135,48904615.70955593
3420,48904615.70955593
3738,6791184.0
2,7, 1, 7, 0,23, 0.00,60.00,Saturday
135,48904615.70955593
3420,48904615.70955593
3738,6791184.0
2,7, 1, 7, 0,24, 0.00,60.00,Saturday
135,48904615.70955593
3420,48904615.70955593
3738,6791184.0
2,8, 1, 8, 0, 1, 0.00,60.00,Sunday
135,46359235.70955593
3420,46359235.709555924
3738,6791184.0
2,8, 1, 8, 0, 2, 0.00,60.00,Sunday
135,46359235.70955593
3420,46359235.709555924
3738,6791184.0
2,8, 1, 8, 0, 3, 0.00,60.00,Sunday
135,46359235.70955593
3420,46359235.709555924
3738,6791184.0
2,8, 1, 8, 0, 4, 0.00,60.00,Sunday
135,46359235.70955593
3420,46359235.709555924
3738,6791184.0
2,8, 1, 8, 0, 5, 0.00,60.00,Sunday
135,46359235.70955593
3420,46359235.709555924
3738,6791184.0
2,8, 1, 8, 0, 6, 0.00,60.00,Sunday
135,46359235.70955593
3420,46359235.709555924
3738,6791184.0
2,8, 1, 8, 0, 7, 0.00,60.00,Sunday
135,66032185.73006148
3420,66032185.73006148
3738,6791184.0
2,8, 1, 8, 0, 8, 0.00,60.00,Sunday
135,53323580.330645084
3420,53323580.330645084
3738,6791184.0
2,8, 1, 8, 0, 9, 0.00,60.00,Sunday
135,46344166.24829911
3420,46344166.24829911
3738,6791184.0
2,8, 1, 8, 0,10, 0.00,60.00,Sunday
135,46288812.51597283
3420,46288812.51597283
3738,6791184.0
2,8, 1, 8, 0,11, 0.00,60.00,Sunday
135,47492002.56196327
3420,47492002.56196327
3738,6791184.0
2,8, 1, 8, 0,12, 0.00,60.00,Sunday
135,51535164.807517484
3420,51535164.807517484
3738,6791184.0
2,8, 1, 8, 0,13, 0.00,60.00,Sunday
135,54258311.31176117
3420,54258311.31176117
3738,6791184.0
2,8, 1, 8, 0,14, 0.00,60.00,Sunday
135,53722615.64921588
3420,53722615.64921588
3738,6791184.0
2,8, 1, 8, 0,15, 0.00,60.00,Sunday
135,54373590.84400572
3420,54373590.84400572
3738,6791184.0
2,8, 1, 8, 0,16, 0.00,60.00,Sunday
135,54742900.692130476
3420,54742900.692130506
3738,6791184.0
2,8, 1, 8, 0,17, 0.00,60.00,Sunday
135,49567855.1474222
3420,49567855.14742221
3738,6791184.0
2,8, 1, 8, 0,18, 0.00,60.00,Sunday
135,66276671.30593526
3420,66276671.30593526
3738,6791184.0
2,8, 1, 8, 0,19, 0.00,60.00,Sunday
135,57105773.81922845
3420,57105773.81922844
3738,6791184.0
2,8, 1, 8, 0,20, 0.00,60.00,Sunday
135,48904615.70955593
3420,48904615.70955593
3738,6791184.0
2,8, 1, 8, 0,21, 0.00,60.00,Sunday
135,48904615.70955593
3420,48904615.70955593
3738,6791184.0
2,8, 1, 8, 0,22, 0.00,60.00,Sunday
135,48904615.70955593
3420,48904615.70955593
3738,6791184.0
2,8, 1, 8, 0,23, 0.00,60.00,Sunday
135,48904615.70955593
3420,48904615.70955593
3738,6791184.0
2,8, 1, 8, 0,24, 0.00,60.00,Sunday
135,48904615.70955593
3420,48904615.70955593
3738,6791184.0
2,9, 1, 9, 0, 1, 0.00,60.00,Monday
135,57609860.1137362
3420,57609860.1137362
3738,6791184.0
2,9, 1, 9, 0, 2, 0.00,60.00,Monday
135,57609860.1137362
3420,57609860.1137362
3738,6791184.0
2,9, 1, 9, 0, 3, 0.00,60.00,Monday
135,57609860.1137362
3420,57609860.1137362
3738,6791184.0
2,9, 1, 9, 0, 4, 0.00,60.00,Monday
135,57609860.1137362
3420,57609860.1137362
3738,6791184.0
2,9, 1, 9, 0, 5, 0.00,60.00,Monday
135,57609860.1137362
3420,57609860.1137362
3738,6791184.0
2,9, 1, 9, 0, 6, 0.00,60.00,Monday
135,57609860.1137362
3420,57609860.1137362
3738,6791184.0
2,9, 1, 9, 0, 7, 0.00,60.00,Monday
135,125210564.96090525
3420,125210564.96090522
3738,6791184.0
2,9, 1, 9, 0, 8, 0.00,60.00,Monday
135,213346445.03779212
3420,213346445.03779212
3738,128278784.2174525
2,9, 1, 9, 0, 9, 0.00,60.00,Monday
135,314232210.38524395
3420,314232210.3852439
3738,77609169.12046263
2,9, 1, 9, 0,10, 0.00,60.00,Monday
135,275319448.57159036
3420,275319448.57159036
3738,50850392.42901458
2,9, 1, 9, 0,11, 0.00,60.00,Monday
135,272109100.9355299
3420,272109100.9355299
3738,15797365.726608913
2,9, 1, 9, 0,12, 0.00,60.00,Monday
135,290734165.74544555
3420,290734165.7454455
3738,20903859.584423132
2,9, 1, 9, 0,13, 0.00,60.00,Monday
135,292885886.20247954
3420,292885886.20247954
3738,31355574.561027445
2,9, 1, 9, 0,14, 0.00,60.00,Monday
135,310072764.42692673
3420,310072764.4269267
3738,26214925.897143763
2,9, 1, 9, 0,15, 0.00,60.00,Monday
135,305299104.780404
3420,305299104.780404
3738,20131558.307290807
2,9, 1, 9, 0,16, 0.00,60.00,Monday
135,314409661.1763023
3420,314409661.1763023
3738,15659346.782078724
2,9, 1, 9, 0,17, 0.00,60.00,Monday
135,324330284.19613385
3420,324330284.19613385
3738,25336255.14865199
2,9, 1, 9, 0,18, 0.00,60.00,Monday
135,243080456.80170134
3420,243080456.80170134
3738,11359319.675232058
2,9, 1, 9, 0,19, 0.00,60.00,Monday
135,131933580.75876641
3420,131933580.75876641
3738,25989534.38143695
2,9, 1, 9, 0,20, 0.00,60.00,Monday
135,113569604.38930234
3420,113569604.38930234
3738,33714202.79281551
2,9, 1, 9, 0,21, 0.00,60.00,Monday
135,103347525.38977493
3420,103347525.38977495
3738,23782446.432163484
2,9, 1, 9, 0,22, 0.00,60.00,Monday
135,99849930.48486978
3420,99849930.4848698
3738,30379747.884130444
2,9, 1, 9, 0,23, 0.00,60.00,Monday
135,77772390.65670998
3420,77772390.65670998
3738,6791184.0
2,9, 1, 9, 0,24, 0.00,60.00,Monday
135,72442274.24247962
3420,72442274.24247962
3738,6791184.0
2,10, 1,10, 0, 1, 0.00,60.00,Tuesday
135,57996196.7332391
3420,57996196.7332391
3738,6791184.0
2,10, 1,10, 0, 2, 0.00,60.00,Tuesday
135,57609860.1137362
3420,57609860.1137362
3738,6791184.0
2,10, 1,10, 0, 3, 0.00,60.00,Tuesday
135,57609860.1137362
3420,57609860.1137362
3738,6791184.0
2,10, 1,10, 0, 4, 0.00,60.00,Tuesday
135,57609860.1137362
3420,57609860.1137362
3738,6791184.0
2,10, 1,10, 0, 5, 0.00,60.00,Tuesday
135,57609860.1137362
3420,57609860.1137362
3738,6791184.0
2,10, 1,10, 0, 6, 0.00,60.00,Tuesday
135,57609860.1137362
3420,57609860.1137362
3738,6791184.0
2,10, 1,10, 0, 7, 0.00,60.00,Tuesday
135,110097246.78550209
3420,110097246.7855021
3738,6791184.0
2,10, 1,10, 0, 8, 0.00,60.00,Tuesday
135,189750044.13426414
3420,189750044.13426414
3738,141911123.98931476
2,10, 1,10, 0, 9, 0.00,60.00,Tuesday
135,308628238.2684862
3420,308628238.2684862
3738,90946252.70953685
2,10, 1,10, 0,10, 0.00,60.00,Tuesday
135,270339342.0083212
3420,270339342.00832117
3738,69447593.18734226
2,10, 1,10, 0,11, 0.00,60.00,Tuesday
135,262968102.31692296
3420,262968102.3169229
3738,59271132.31928076
2,10, 1,10, 0,12, 0.00,60.00,Tuesday
135,272728114.6053484
3420,272728114.6053484
3738,69799891.72349122
2,10, 1,10, 0,13, 0.00,60.00,Tuesday
135,289186959.18474585
3420,289186959.1847458
3738,51426686.97730975
2,10, 1,10, 0,14, 0.00,60.00,Tuesday
135,288932737.5763661
3420,288932737.57636607
3738,33304879.277750216
2,10, 1,10, 0,15, 0.00,60.00,Tuesday
135,281035130.0257872
3420,281035130.0257871
3738,16087818.275559202
2,10, 1,10, 0,16, 0.00,60.00,Tuesday
135,282912827.55030674
3420,282912827.55030674
3738,17431948.29636643
2,10, 1,10, 0,17, 0.00,60.00,Tuesday
135,294352113.7288415
3420,294352113.7288415
3738,23483800.968850836
2,10, 1,10, 0,18, 0.00,60.00,Tuesday
135,250708219.30666775
3420,250708219.30666775
3738,44762658.19338882
2,10, 1,10, 0,19, 0.00,60.00,Tuesday
135,131202323.67431784
3420,131202323.67431784
3738,91381093.33491924
2,10, 1,10, 0,20, 0.00,60.00,Tuesday
135,113880315.81292328
3420,113880315.81292327
3738,98132339.21985696
2,10, 1,10, 0,21, 0.00,60.00,Tuesday
135,104859444.23955922
3420,104859444.23955922
3738,110011572.06839116
2,10, 1,10, 0,22, 0.00,60.00,Tuesday
135,104266938.95427525
3420,104266938.95427528
3738,124476522.56703743
2,10, 1,10, 0,23, 0.00,60.00,Tuesday
135,77772390.65670998
3420,77772390.65670998
3738,6791184.0
2,10, 1,10, 0,24, 0.00,60.00,Tuesday
135,72442274.24247962
3420,72442274.24247962
3738,6791184.0
2,11, 1,11, 0, 1, 0.00,60.00,Wednesday
135,57996196.7332391
3420,57996196.7332391
3738,6791184.0
2,11, 1,11, 0, 2, 0.00,60.00,Wednesday
135,57609860.1137362
3420,57609860.1137362
3738,6791184.0
2,11, 1,11, 0, 3, 0.00,60.00,Wednesday
135,57609860.1137362
3420,57609860.1137362
3738,6791184.0
2,11, 1,11, 0, 4, 0.00,60.00,Wednesday
135,57609860.1137362
3420,57609860.1137362
3738,6791184.0
2,11, 1,11, 0, 5, 0.00,60.00,Wednesday
135,57609860.1137362
3420,57609860.1137362
3738,6791184.0
2,11, 1,11, 0, 6, 0.00,60.00,Wednesday
135,57609860.1137362
3420,57609860.1137362
3738,6791184.0
2,11, 1,11, 0, 7, 0.00,60.00,Wednesday
135,116704819.87526533
3420,116704819.87526533
3738,6791184.0
2,11, 1,11, 0, 8, 0.00,60.00,Wednesday
135,194322384.98766893
3420,194322384.98766893
3738,105218514.04991291
2,11, 1,11, 0, 9, 0.00,60.00,Wednesday
135,313668601.32354796
3420,313668601.323548
3738,69093153.37236777
2,11, 1,11, 0,10, 0.00,60.00,Wednesday
135,273942445.35295415
3420,273942445.35295415
3738,53427519.01230332
2,11, 1,11, 0,11, 0.00,60.00,Wednesday
135,270084970.0307416
3420,270084970.0307415
3738,23214819.29479909
2,11, 1,11, 0,12, 0.00,60.00,Wednesday
135,282673065.0593429
3420,282673065.05934286
3738,29879090.63877022
2,11, 1,11, 0,13, 0.00,60.00,Wednesday
135,286728353.80041414
3420,286728353.80041414
3738,39741002.84263347
2,11, 1,11, 0,14, 0.00,60.00,Wednesday
135,286949711.3572858
3420,286949711.3572858
3738,28990449.5936447
2,11, 1,11, 0,15, 0.00,60.00,Wednesday
135,271612649.2339802
3420,271612649.2339801
3738,20663457.30468166
2,11, 1,11, 0,16, 0.00,60.00,Wednesday
135,270580362.8036449
3420,270580362.8036449
3738,24613754.983541977
2,11, 1,11, 0,17, 0.00,60.00,Wednesday
135,287423729.7248466
3420,287423729.7248466
3738,52599416.56737969
2,11, 1,11, 0,18, 0.00,60.00,Wednesday
135,249438662.3372482
3420,249438662.3372482
3738,56785395.65292222
2,11, 1,11, 0,19, 0.00,60.00,Wednesday
135,131751607.94396955
3420,131751607.94396955
3738,82690804.20200253
2,11, 1,11, 0,20, 0.00,60.00,Wednesday
135,113980346.37480542
3420,113980346.37480542
3738,92010692.17540698
2,11, 1,11, 0,21, 0.00,60.00,Wednesday
135,105229779.99785495
3420,105229779.99785496
3738,91615401.29888426
2,11, 1,11, 0,22, 0.00,60.00,Wednesday
135,103090115.88796574
3420,103090115.88796575
3738,102335073.57625361
2,11, 1,11, 0,23, 0.00,60.00,Wednesday
135,77772390.65670998
3420,77772390.65670998
3738,6791184.0
2,11, 1,11, 0,24, 0.00,60.00,Wednesday
135,72442274.24247962
3420,72442274.24247962
3738,6791184.0
2,12, 1,12, 0, 1, 0.00,60.00,Thursday
135,57996196.7332391
3420,57996196.7332391
3738,6791184.0
2,12, 1,12, 0, 2, 0.00,60.00,Thursday
135,57609860.1137362
3420,57609860.1137362
3738,6791184.0
2,12, 1,12, 0, 3, 0.00,60.00,Thursday
135,57609860.1137362
3420,57609860.1137362
3738,6791184.0
2,12, 1,12, 0, 4, 0.00,60.00,Thursday
135,57609860.1137362
3420,57609860.1137362
3738,6791184.0
2,12, 1,12, 0, 5, 0.00,60.00,Thursday
135,57609860.1137362
3420,57609860.1137362
3738,6791184.0
2,12, 1,12, 0, 6, 0.00,60.00,Thursday
135,57609860.1137362
3420,57609860.1137362
3738,6791184.0
2,12, 1,12, 0, 7, 0.00,60.00,Thursday
135,110699024.15572073
3420,110699024.15572073
3738,6791184.0
2,12, 1,12, 0, 8, 0.00,60.00,Thursday
135,192021873.87519914
3420,192021873.87519914
3738,132232611.89906526
2,12, 1,12, 0, 9, 0.00,60.00,Thursday
135,310862305.1283971
3420,310862305.1283971
3738,85962593.65322219
2,12, 1,12, 0,10, 0.00,60.00,Thursday
135,269223201.2929362
3420,269223201.29293615
3738,73446598.52314499
2,12, 1,12, 0,11, 0.00,60.00,Thursday
135,262921158.6095292
3420,262921158.6095292
3738,57168257.36631228
2,12, 1,12, 0,12, 0.00,60.00,Thursday
135,275031831.3572363
3420,275031831.35723627
3738,50879964.32691631
2,12, 1,12, 0,13, 0.00,60.00,Thursday
135,292361083.6961421
3420,292361083.696142
3738,43175689.94233924
2,12, 1,12, 0,14, 0.00,60.00,Thursday
135,285811089.0686022
3420,285811089.0686022
3738,38264205.55685904
2,12, 1,12, 0,15, 0.00,60.00,Thursday
135,270315602.3624751
3420,270315602.36247504
3738,19769347.84853541
2,12, 1,12, 0,16, 0.00,60.00,Thursday
135,270151116.3721161
3420,270151116.3721161
3738,27703785.604728706
2,12, 1,12, 0,17, 0.00,60.00,Thursday
135,288745875.62180674
3420,288745875.62180674
3738,35012709.73265983
2,12, 1,12, 0,18, 0.00,60.00,Thursday
135,250651187.4084278
3420,250651187.4084278
3738,49854755.83558652
2,12, 1,12, 0,19, 0.00,60.00,Thursday
135,132866568.78218152
3420,132866568.78218152
3738,73967011.68268806
2,12, 1,12, 0,20, 0.00,60.00,Thursday
135,113592595.18178797
3420,113592595.18178797
3738,71629889.0327379
2,12, 1,12, 0,21, 0.00,60.00,Thursday
135,104257376.03470032
3420,104257376.03470033
3738,75360853.07587403
2,12, 1,12, 0,22, 0.00,60.00,Thursday
135,101372691.31650534
3420,101372691.31650534
3738,77885892.26543136
2,12, 1,12, 0,23, 0.00,60.00,Thursday
135,77772390.65670998
3420,77772390.65670998
3738,6791184.0
2,12, 1,12, 0,24, 0.00,60.00,Thursday
135,72442274.24247962
3420,72442274.24247962
3738,6791184.0
2,13, 1,13, 0, 1, 0.00,60.00,Friday
135,57996196.7332391
3420,57996196.7332391
3738,6791184.0