Program Version,EnergyPlus, Version 9.6.0-f420c06a69, YMD=2022.07.05 15:01
1,5,Environment Title[],Latitude[deg],Longitude[deg],Time Zone[],Elevation[m]
2,8,Day of Simulation[],Month[],Day of Month[],DST Indicator[1=yes 0=no],Hour[],StartMinute[],EndMinute[],DayType
3,5,Cumulative Day of Simulation[],Month[],Day of Month[],DST Indicator[1=yes 0=no],DayType  ! When Daily Meters Requested
4,2,Cumulative Days of Simulation[],Month[]  ! When Monthly Meters Requested
5,1,Cumulative Days of Simulation[] ! When Run Period Meters Requested
6,1,Calendar Year of Simulation[] ! When Annual Meters Requested
135,1,Electricity:Facility [J] !Hourly
3420,1,ElectricityNet:Facility [J] !Hourly
3738,1,NaturalGas:Facility [J] !Hourly
End of Data Dictionary
1,RUNPERIOD 1,  35.04,-106.62,  -7.00,1619.00
2,1, 1, 1, 0, 1, 0.00,60.00,Holiday
135,46359074.93593144
3420,46359074.93593143
3738,6791184.0
2,1, 1, 1, 0, 2, 0.00,60.00,Holiday
135,46359235.70955593
3420,46359235.709555924
3738,6791184.0
2,1, 1, 1, 0, 3, 0.00,60.00,Holiday
135,46359235.70955593
3420,46359235.709555924
3738,6791184.0
2,1, 1, 1, 0, 4, 0.00,60.00,Holiday
135,46359235.70955593
3420,46359235.709555924
3738,6791184.0
2,1, 1, 1, 0, 5, 0.00,60.00,Holiday
135,46359235.70955593
3420,46359235.709555924
3738,6791184.0
2,1, 1, 1, 0, 6, 0.00,60.00,Holiday
135,46359235.70955593
3420,46359235.709555924
3738,6791184.0
2,1, 1, 1, 0, 7, 0.00,60.00,Holiday
135,66032185.73006148
3420,66032185.73006148
3738,6791184.0
2,1, 1, 1, 0, 8, 0.00,60.00,Holiday
135,50074623.774579875
3420,50074623.774579875
3738,6791184.0
2,1, 1, 1, 0, 9, 0.00,60.00,Holiday
135,46351708.9331394
3420,46351708.9331394
3738,6791184.0
2,1, 1, 1, 0,10, 0.00,60.00,Holiday
135,46288813.17904917
3420,46288813.179049164
3738,6791184.0
2,1, 1, 1, 0,11, 0.00,60.00,Holiday
135,50009342.363199614
3420,50009342.363199614
3738,6791184.0
2,1, 1, 1, 0,12, 0.00,60.00,Holiday
135,53617732.55272024
3420,53617732.55272024
3738,6791184.0
2,1, 1, 1, 0,13, 0.00,60.00,Holiday
135,53634290.22678877
3420,53634290.22678876
3738,6791184.0
2,1, 1, 1, 0,14, 0.00,60.00,Holiday
135,58165555.4574862
3420,58165555.45748622
3738,6791184.0
2,1, 1, 1, 0,15, 0.00,60.00,Holiday
135,62026144.28259239
3420,62026144.28259239
3738,6791184.0
2,1, 1, 1, 0,16, 0.00,60.00,Holiday
135,62605261.924326405
3420,62605261.924326405
3738,6791184.0
2,1, 1, 1, 0,17, 0.00,60.00,Holiday
135,50224406.74534619
3420,50224406.74534619
3738,6791184.0
2,1, 1, 1, 0,18, 0.00,60.00,Holiday
135,67534969.93162571
3420,67534969.93162571
3738,6791184.0
2,1, 1, 1, 0,19, 0.00,60.00,Holiday
135,57105773.81922845
3420,57105773.81922844
3738,6791184.0
2,1, 1, 1, 0,20, 0.00,60.00,Holiday
135,48904615.70955593
3420,48904615.70955593
3738,6791184.0
2,1, 1, 1, 0,21, 0.00,60.00,Holiday
135,48904615.70955593
3420,48904615.70955593
3738,6791184.0
2,1, 1, 1, 0,22, 0.00,60.00,Holiday
135,48904615.70955593
3420,48904615.70955593
3738,6791184.0
2,1, 1, 1, 0,23, 0.00,60.00,Holiday
135,48904615.70955593
3420,48904615.70955593
3738,6791184.0
2,1, 1, 1, 0,24, 0.00,60.00,Holiday
135,48904615.70955593
3420,48904615.70955593
3738,6791184.0
2,2, 1, 2, 0, 1, 0.00,60.00,Monday
135,57609860.1137362
3420,57609860.1137362
3738,6791184.0
2,2, 1, 2, 0, 2, 0.00,60.00,Monday
135,57609860.1137362
3420,57609860.1137362
3738,6791184.0
2,2, 1, 2, 0, 3, 0.00,60.00,Monday
135,57609860.1137362
3420,57609860.1137362
3738,6791184.0
2,2, 1, 2, 0, 4, 0.00,60.00,Monday
135,57609860.1137362
3420,57609860.1137362
3738,6791184.0
2,2, 1, 2, 0, 5, 0.00,60.00,Monday
135,57609860.1137362
3420,57609860.1137362
3738,6791184.0
2,2, 1, 2, 0, 6, 0.00,60.00,Monday
135,57609860.1137362
3420,57609860.1137362
3738,6791184.0
2,2, 1, 2, 0, 7, 0.00,60.00,Monday
135,137296304.18115827
3420,137296304.18115827
3738,6791184.0
2,2, 1, 2, 0, 8, 0.00,60.00,Monday
135,228091710.0508986
3420,228091710.0508986
3738,147577462.2909266
2,2, 1, 2, 0, 9, 0.00,60.00,Monday
135,310928566.17060184
3420,310928566.17060184
3738,92519461.25435951
2,2, 1, 2, 0,10, 0.00,60.00,Monday
135,270881865.80048376
3420,270881865.8004837
3738,64104549.62432517
2,2, 1, 2, 0,11, 0.00,60.00,Monday
135,266825978.4651965
3420,266825978.46519646
3738,26002213.802575894
2,2, 1, 2, 0,12, 0.00,60.00,Monday
135,286238561.40794075
3420,286238561.40794075
3738,20876803.489152778
2,2, 1, 2, 0,13, 0.00,60.00,Monday
135,288356518.2716734
3420,288356518.2716734
3738,31334359.881758783
2,2, 1, 2, 0,14, 0.00,60.00,Monday
135,302657040.90602744
3420,302657040.90602744
3738,26165959.08803696
2,2, 1, 2, 0,15, 0.00,60.00,Monday
135,292952092.6213523
3420,292952092.6213523
3738,16663119.70027982
2,2, 1, 2, 0,16, 0.00,60.00,Monday
135,295938544.5595814
3420,295938544.55958134
3738,19076350.651673127
2,2, 1, 2, 0,17, 0.00,60.00,Monday
135,297787147.85363185
3420,297787147.85363185
3738,20696594.203904368
2,2, 1, 2, 0,18, 0.00,60.00,Monday
135,239712035.48973233
3420,239712035.48973233
3738,40746976.85780211
2,2, 1, 2, 0,19, 0.00,60.00,Monday
135,132378462.14191352
3420,132378462.1419135
3738,91990706.88139857
2,2, 1, 2, 0,20, 0.00,60.00,Monday
135,118495477.97781286
3420,118495477.97781286
3738,114903923.75894003
2,2, 1, 2, 0,21, 0.00,60.00,Monday
135,112167757.47051007
3420,112167757.47051004
3738,135218823.82154495
2,2, 1, 2, 0,22, 0.00,60.00,Monday
135,112192637.54716405
3420,112192637.54716405
3738,144255687.0934404
2,2, 1, 2, 0,23, 0.00,60.00,Monday
135,77772390.65670998
3420,77772390.65670998
3738,6791184.0
2,2, 1, 2, 0,24, 0.00,60.00,Monday
135,72442274.24247962
3420,72442274.24247962
3738,6791184.0
2,3, 1, 3, 0, 1, 0.00,60.00,Tuesday
135,57996196.7332391
3420,57996196.7332391
3738,6791184.0
2,3, 1, 3, 0, 2, 0.00,60.00,Tuesday
135,57609860.1137362
3420,57609860.1137362
3738,6791184.0
2,3, 1, 3, 0, 3, 0.00,60.00,Tuesday
135,57609860.1137362
3420,57609860.1137362
3738,6791184.0
2,3, 1, 3, 0, 4, 0.00,60.00,Tuesday
135,57609860.1137362
3420,57609860.1137362
3738,6791184.0
2,3, 1, 3, 0, 5, 0.00,60.00,Tuesday
135,57609860.1137362
3420,57609860.1137362
3738,6791184.0
2,3, 1, 3, 0, 6, 0.00,60.00,Tuesday
135,57609860.1137362
3420,57609860.1137362
3738,6791184.0
2,3, 1, 3, 0, 7, 0.00,60.00,Tuesday
135,128326962.58842322
3420,128326962.58842322
3738,6791184.0
2,3, 1, 3, 0, 8, 0.00,60.00,Tuesday
135,212181783.94957504
3420,212181783.94957507
3738,166508834.39672363
2,3, 1, 3, 0, 9, 0.00,60.00,Tuesday
135,313129628.12627476
3420,313129628.1262747
3738,95535993.67089152
2,3, 1, 3, 0,10, 0.00,60.00,Tuesday
135,273216622.8271113
3420,273216622.8271113
3738,55807455.97745207
2,3, 1, 3, 0,11, 0.00,60.00,Tuesday
135,270603526.2751883
3420,270603526.2751883
3738,18346477.47788889
2,3, 1, 3, 0,12, 0.00,60.00,Tuesday
135,289460621.44238836
3420,289460621.4423883
3738,22946611.993758954
2,3, 1, 3, 0,13, 0.00,60.00,Tuesday
135,293506188.6943188
3420,293506188.6943188
3738,31311378.37519408
2,3, 1, 3, 0,14, 0.00,60.00,Tuesday
135,311422510.9538933
3420,311422510.9538933
3738,26180091.656324483
2,3, 1, 3, 0,15, 0.00,60.00,Tuesday
135,304853941.811792
3420,304853941.811792
3738,20132503.468215022
2,3, 1, 3, 0,16, 0.00,60.00,Tuesday
135,308255427.0354428
3420,308255427.03544277
3738,15641265.873736482
2,3, 1, 3, 0,17, 0.00,60.00,Tuesday
135,311665399.32811224
3420,311665399.32811224
3738,21349885.243686743
2,3, 1, 3, 0,18, 0.00,60.00,Tuesday
135,242297938.43996355
3420,242297938.43996355
3738,18438981.07202829
2,3, 1, 3, 0,19, 0.00,60.00,Tuesday
135,131804196.92479587
3420,131804196.92479587
3738,36211620.77912016
2,3, 1, 3, 0,20, 0.00,60.00,Tuesday
135,113702867.12375434
3420,113702867.12375434
3738,56626609.91797604
2,3, 1, 3, 0,21, 0.00,60.00,Tuesday
135,103929771.04414243
3420,103929771.04414243
3738,65383372.82667771
2,3, 1, 3, 0,22, 0.00,60.00,Tuesday
135,101910352.747718
3420,101910352.74771802
3738,95913648.33158988
2,3, 1, 3, 0,23, 0.00,60.00,Tuesday
135,77772390.65670998
3420,77772390.65670998
3738,6791184.0
2,3, 1, 3, 0,24, 0.00,60.00,Tuesday
135,72442274.24247962
3420,72442274.24247962
3738,6791184.0
2,4, 1, 4, 0, 1, 0.00,60.00,Wednesday
135,57996196.7332391
3420,57996196.7332391
3738,6791184.0
2,4, 1, 4, 0, 2, 0.00,60.00,Wednesday
135,57609860.1137362
3420,57609860.1137362
3738,6791184.0
2,4, 1, 4, 0, 3, 0.00,60.00,Wednesday
135,57609860.1137362
3420,57609860.1137362
3738,6791184.0
2,4, 1, 4, 0, 4, 0.00,60.00,Wednesday
135,57609860.1137362
3420,57609860.1137362
3738,6791184.0
2,4, 1, 4, 0, 5, 0.00,60.00,Wednesday
135,57609860.1137362
3420,57609860.1137362
3738,6791184.0
2,4, 1, 4, 0, 6, 0.00,60.00,Wednesday
135,57609860.1137362
3420,57609860.1137362
3738,6791184.0
2,4, 1, 4, 0, 7, 0.00,60.00,Wednesday
135,110230735.81685042
3420,110230735.81685045
3738,6791184.0
2,4, 1, 4, 0, 8, 0.00,60.00,Wednesday
135,195941655.52798522
3420,195941655.52798522
3738,152997903.56473294
2,4, 1, 4, 0, 9, 0.00,60.00,Wednesday
135,310187603.80114627
3420,310187603.80114627
3738,90623385.6748969
2,4, 1, 4, 0,10, 0.00,60.00,Wednesday
135,270024252.1656126
3420,270024252.1656125
3738,62216261.27372792
2,4, 1, 4, 0,11, 0.00,60.00,Wednesday
135,263983497.3299793
3420,263983497.3299793
3738,43572076.33761203
2,4, 1, 4, 0,12, 0.00,60.00,Wednesday
135,277703375.435197
3420,277703375.43519694
3738,27965774.80302711
2,4, 1, 4, 0,13, 0.00,60.00,Wednesday
135,283835649.1751578
3420,283835649.1751577
3738,31354100.31646205
2,4, 1, 4, 0,14, 0.00,60.00,Wednesday
135,288959218.53821886
3420,288959218.53821886
3738,26192977.484622937
2,4, 1, 4, 0,15, 0.00,60.00,Wednesday
135,274345420.51641977
3420,274345420.5164197
3738,20163069.743445285
2,4, 1, 4, 0,16, 0.00,60.00,Wednesday
135,273995372.7154273
3420,273995372.7154272
3738,15652841.196460944
2,4, 1, 4, 0,17, 0.00,60.00,Wednesday
135,293909541.04806906
3420,293909541.04806906
3738,25318063.11425547
2,4, 1, 4, 0,18, 0.00,60.00,Wednesday
135,251133166.9888797
3420,251133166.9888797
3738,20887920.232377812
2,4, 1, 4, 0,19, 0.00,60.00,Wednesday
135,131838346.25737998
3420,131838346.25737998
3738,38555106.86837029
2,4, 1, 4, 0,20, 0.00,60.00,Wednesday
135,113569604.38930234
3420,113569604.38930234
3738,53219455.275749385
2,4, 1, 4, 0,21, 0.00,60.00,Wednesday
135,103064422.22693202
3420,103064422.22693202
3738,66393821.661677115
2,4, 1, 4, 0,22, 0.00,60.00,Wednesday
135,99883198.10816257
3420,99883198.10816257
3738,77596439.5896692
2,4, 1, 4, 0,23, 0.00,60.00,Wednesday
135,77772390.65670998
3420,77772390.65670998
3738,6791184.0
2,4, 1, 4, 0,24, 0.00,60.00,Wednesday
135,72442274.24247962
3420,72442274.24247962
3738,6791184.0
2,5, 1, 5, 0, 1, 0.00,60.00,Thursday
135,57996196.7332391
3420,57996196.7332391
3738,6791184.0
2,5, 1, 5, 0, 2, 0.00,60.00,Thursday
135,57609860.1137362
3420,57609860.1137362
3738,6791184.0
2,5, 1, 5, 0, 3, 0.00,60.00,Thursday
135,57609860.1137362
3420,57609860.1137362
3738,6791184.0
2,5, 1, 5, 0, 4, 0.00,60.00,Thursday
135,57609860.1137362
3420,57609860.1137362
3738,6791184.0
2,5, 1, 5, 0, 5, 0.00,60.00,Thursday
135,57609860.1137362
3420,57609860.1137362
3738,6791184.0
2,5, 1, 5, 0, 6, 0.00,60.00,Thursday
135,57609860.1137362
3420,57609860.1137362
3738,6791184.0
2,5, 1, 5, 0, 7, 0.00,60.00,Thursday
135,101602100.66420522
3420,101602100.66420525
3738,6791184.0
2,5, 1, 5, 0, 8, 0.00,60.00,Thursday
135,181563640.04690644
3420,181563640.0469064
3738,124575084.92111689
2,5, 1, 5, 0, 9, 0.00,60.00,Thursday
135,309928616.2479954
3420,309928616.24799544
3738,66881164.795944
2,5, 1, 5, 0,10, 0.00,60.00,Thursday
135,277596307.0964643
3420,277596307.09646416
3738,21804023.233442556
2,5, 1, 5, 0,11, 0.00,60.00,Thursday
135,276810961.4886271
3420,276810961.4886271
3738,11332591.902137136
2,5, 1, 5, 0,12, 0.00,60.00,Thursday
135,289502134.0936116
3420,289502134.0936116
3738,20890933.245872762
2,5, 1, 5, 0,13, 0.00,60.00,Thursday
135,289896217.71439135
3420,289896217.71439135
3738,31320741.458483055
2,5, 1, 5, 0,14, 0.00,60.00,Thursday
135,310979809.6013012
3420,310979809.6013012
3738,26188858.5659862
2,5, 1, 5, 0,15, 0.00,60.00,Thursday
135,304187908.2039329
3420,304187908.2039329
3738,20203126.051777836
2,5, 1, 5, 0,16, 0.00,60.00,Thursday
135,307915176.612399
3420,307915176.612399
3738,15641046.377506884
2,5, 1, 5, 0,17, 0.00,60.00,Thursday
135,311506174.8544437
3420,311506174.8544437
3738,25322163.87762317
2,5, 1, 5, 0,18, 0.00,60.00,Thursday
135,244324442.67916507
3420,244324442.67916504
3738,11107829.402843548
2,5, 1, 5, 0,19, 0.00,60.00,Thursday
135,132383012.8137869
3420,132383012.8137869
3738,18628014.210099466
2,5, 1, 5, 0,20, 0.00,60.00,Thursday
135,113569604.38930234
3420,113569604.38930234
3738,38702189.29863606
2,5, 1, 5, 0,21, 0.00,60.00,Thursday
135,102910895.06207252
3420,102910895.06207252
3738,51074661.71829626
2,5, 1, 5, 0,22, 0.00,60.00,Thursday
135,98413734.4114341
3420,98413734.4114341
3738,68366893.58192956
2,5, 1, 5, 0,23, 0.00,60.00,Thursday
135,77772390.65670998
3420,77772390.65670998
3738,6791184.0
2,5, 1, 5, 0,24, 0.00,60.00,Thursday
135,72442274.24247962
3420,72442274.24247962
3738,6791184.0
2,6, 1, 6, 0, 1, 0.00,60.00,Friday
135,57996196.7332391
3420,57996196.7332391
3738,6791184.0
2,6, 1, 6, 0, 2, 0.00,60.00,Friday
135,57609860.1137362
3420,57609860.1137362
3738,6791184.0
2,6, 1, 6, 0, 3, 0.00,60.00,Friday
135,57609860.1137362
3420,57609860.1137362
3738,6791184.0
2,6, 1, 6, 0, 4, 0.00,60.00,Friday
135,57609860.1137362
3420,57609860.1137362
3738,6791184.0
2,6, 1, 6, 0, 5, 0.00,60.00,Friday
135,57609860.1137362
3420,57609860.1137362
3738,6791184.0
2,6, 1, 6, 0, 6, 0.00,60.00,Friday
135,57609860.1137362
3420,57609860.1137362
3738,6791184.0
2,6, 1, 6, 0, 7, 0.00,60.00,Friday
135,105327945.7568534
3420,105327945.75685343
3738,6791184.0
2,6, 1, 6, 0, 8, 0.00,60.00,Friday
135,192420707.88248166
3420,192420707.88248166
3738,129654281.77999935
2,6, 1, 6, 0, 9, 0.00,60.00,Friday
135,313692357.7183637
3420,313692357.7183637
3738,89686838.058956
2,6, 1, 6, 0,10, 0.00,60.00,Friday
135,269527259.8092474
3420,269527259.8092473
3738,82225094.23474094
2,6, 1, 6, 0,11, 0.00,60.00,Friday
135,261605861.61940137
3420,261605861.61940128
3738,67382686.95788845
2,6, 1, 6, 0,12, 0.00,60.00,Friday
135,278711990.3927072
3420,278711990.39270717
3738,51041658.72960171
2,6, 1, 6, 0,13, 0.00,60.00,Friday
135,288121752.83752984
3420,288121752.83752984
3738,27956737.80984787
2,6, 1, 6, 0,14, 0.00,60.00,Friday
135,300970578.44780594
3420,300970578.44780594
3738,30008776.68638932
2,6, 1, 6, 0,15, 0.00,60.00,Friday
135,288013630.76176614
3420,288013630.76176614
3738,15682282.838753564
2,6, 1, 6, 0,16, 0.00,60.00,Friday
135,290645612.668964
3420,290645612.6689639
3738,20084065.579886824
2,6, 1, 6, 0,17, 0.00,60.00,Friday
135,301155473.7217762
3420,301155473.7217761
3738,21149355.25767792
2,6, 1, 6, 0,18, 0.00,60.00,Friday
135,250433600.66673616
3420,250433600.66673616
3738,57044740.386212125
2,6, 1, 6, 0,19, 0.00,60.00,Friday
135,131456842.89085773
3420,131456842.89085773
3738,81430878.08099005
2,6, 1, 6, 0,20, 0.00,60.00,Friday
135,113759828.82670867
3420,113759828.82670866
3738,86278271.28619583
2,6, 1, 6, 0,21, 0.00,60.00,Friday
135,105301125.92510605
3420,105301125.92510606
3738,103501150.37934801
2,6, 1, 6, 0,22, 0.00,60.00,Friday
135,102227357.42417324
3420,102227357.42417324
3738,102160929.30362393
2,6, 1, 6, 0,23, 0.00,60.00,Friday
135,77772390.65670998
3420,77772390.65670998
3738,6791184.0
2,6, 1, 6, 0,24, 0.00,60.00,Friday
135,72442274.24247962
3420,72442274.24247962
3738,6791184.0
2,7, 1, 7, 0, 1, 0.00,60.00,Saturday
135,46745513.81922844
3420,46745513.81922843
3738,6791184.0
2,7, 1, 7, 0, 2, 0.00,60.00,Saturday
135,46359235.70955593
3420,46359235.709555924
3738,6791184.0
2,7, 1, 7, 0, 3, 0.00,60.00,Saturday
135,46359235.70955593
3420,46359235.709555924
3738,6791184.0
2,7, 1, 7, 0, 4, 0.00,60.00,Saturday
135,46359235.70955593
3420,46359235.709555924
3738,6791184.0
2,7, 1, 7, 0, 5, 0.00,60.00,Saturday
135,46359235.70955593
3420,46359235.709555924
3738,6791184.0
2,7, 1, 7, 0, 6, 0.00,60.00,Saturday
135,46359235.70955593
3420,46359235.709555924
3738,6791184.0
2,7, 1, 7, 0, 7, 0.00,60.00,Saturday
135,114591304.06685601
3420,114591304.06685601
3738,6791184.0
2,7, 1, 7, 0, 8, 0.00,60.00,Saturday
135,146131557.11827332
3420,146131557.11827332
3738,136686842.53965962
2,7, 1, 7, 0, 9, 0.00,60.00,Saturday
135,136247845.678411
3420,136247845.67841098
3738,119854149.148135
2,7, 1, 7, 0,10, 0.00,60.00,Saturday
135,136836658.35926375
3420,136836658.35926375
3738,106700951.2738926
2,7, 1, 7, 0,11, 0.00,60.00,Saturday
135,129093995.4938753
3420,129093995.4938753
3738,79140633.35211849
2,7, 1, 7, 0,12, 0.00,60.00,Saturday
135,137510021.92304987
3420,137510021.92304984
3738,37940623.71360982
2,7, 1, 7, 0,13, 0.00,60.00,Saturday
135,96786398.51692098
3420,96786398.51692095
3738,25032094.749061096
2,7, 1, 7, 0,14, 0.00,60.00,Saturday
135,86584580.07507743
3420,86584580.07507743
3738,27030038.136312492
2,7, 1, 7, 0,15, 0.00,60.00,Saturday
135,80777988.06353001
3420,80777988.06353001
3738,24572398.972851887
2,7, 1, 7, 0,16, 0.00,60.00,Saturday
135,76420110.1071865
3420,76420110.1071865
3738,33003290.16231399
2,7, 1, 7, 0,17, 0.00,60.00,Saturday
135,79661606.93981135
3420,79661606.93981138
3738,42030859.485137776
2,7, 1, 7, 0,18, 0.00,60.00,Saturday
135,83077160.33306564
3420,83077160.33306564
3738,55594788.32744122
2,7, 1, 7, 0,19, 0.00,60.00,Saturday
135,66276703.53612528
3420,66276703.53612528
3738,6791184.0
2,7, 1, 7, 0,20, 0.00,60.00,Saturday
135,49290893.81922844
3420,49290893.81922844
3738,6791184.0
2,7, 1, 7, 0,21, 0.00,60.00,Saturday
135,48904615.70955593
3420,48904615.70955593
3738,6791184.0
2,7, 1, 7, 0,22, 0.00,60.00,Saturday
135,48904615.70955593
3420,48904615.70955593
3738,6791184.0
2,7, 1, 7, 0,23, 0.00,60.00,Saturday
135,48904615.70955593
3420,48904615.70955593
3738,6791184.0
2,7, 1, 7, 0,24, 0.00,60.00,Saturday
135,48904615.70955593
3420,48904615.70955593
3738,6791184.0
2,8, 1, 8, 0, 1, 0.00,60.00,Sunday
135,46359235.70955593
3420,46359235.709555924
3738,6791184.0
2,8, 1, 8, 0, 2, 0.00,60.00,Sunday
135,46359235.70955593
3420,46359235.709555924
3738,6791184.0
2,8, 1, 8, 0, 3, 0.00,60.00,Sunday
135,46359235.70955593
3420,46359235.709555924
3738,6791184.0
2,8, 1, 8, 0, 4, 0.00,60.00,Sunday
135,46359235.70955593
3420,46359235.709555924
3738,6791184.0
2,8, 1, 8, 0, 5, 0.00,60.00,Sunday
135,46359235.70955593
3420,46359235.709555924
3738,6791184.0
2,8, 1, 8, 0, 6, 0.00,60.00,Sunday
135,46359235.70955593
3420,46359235.709555924
3738,6791184.0
2,8, 1, 8, 0, 7, 0.00,60.00,Sunday
135,66032185.73006148
3420,66032185.73006148
3738,6791184.0
2,8, 1, 8, 0, 8, 0.00,60.00,Sunday
135,53323580.330645084
3420,53323580.330645084
3738,6791184.0
2,8, 1, 8, 0, 9, 0.00,60.00,Sunday
135,46344166.24829911
3420,46344166.24829911
3738,6791184.0
2,8, 1, 8, 0,10, 0.00,60.00,Sunday
135,46288812.51597283
3420,46288812.51597283
3738,6791184.0
2,8, 1, 8, 0,11, 0.00,60.00,Sunday
135,47245028.41474216
3420,47245028.41474216
3738,6791184.0
2,8, 1, 8, 0,12, 0.00,60.00,Sunday
135,50962954.15977647
3420,50962954.15977647
3738,6791184.0
2,8, 1, 8, 0,13, 0.00,60.00,Sunday
135,53590337.67067892
3420,53590337.67067892
3738,6791184.0
2,8, 1, 8, 0,14, 0.00,60.00,Sunday
135,54303995.42210134
3420,54303995.422101356
3738,6791184.0
2,8, 1, 8, 0,15, 0.00,60.00,Sunday
135,53569625.0658609
3420,53569625.065860905
3738,6791184.0
2,8, 1, 8, 0,16, 0.00,60.00,Sunday
135,54091862.90314801
3420,54091862.90314802
3738,6791184.0
2,8, 1, 8, 0,17, 0.00,60.00,Sunday
135,50079168.480625406
3420,50079168.480625406
3738,6791184.0
2,8, 1, 8, 0,18, 0.00,60.00,Sunday
135,66276671.30593526
3420,66276671.30593526
3738,6791184.0
2,8, 1, 8, 0,19, 0.00,60.00,Sunday
135,57105773.81922845
3420,57105773.81922844
3738,6791184.0
2,8, 1, 8, 0,20, 0.00,60.00,Sunday
135,48904615.70955593
3420,48904615.70955593
3738,6791184.0
2,8, 1, 8, 0,21, 0.00,60.00,Sunday
135,48904615.70955593
3420,48904615.70955593
3738,6791184.0
2,8, 1, 8, 0,22, 0.00,60.00,Sunday
135,48904615.70955593
3420,48904615.70955593
3738,6791184.0
2,8, 1, 8, 0,23, 0.00,60.00,Sunday
135,48904615.70955593
3420,48904615.70955593
3738,6791184.0
2,8, 1, 8, 0,24, 0.00,60.00,Sunday
135,48904615.70955593
3420,48904615.70955593
3738,6791184.0
2,9, 1, 9, 0, 1, 0.00,60.00,Monday
135,57609860.1137362
3420,57609860.1137362
3738,6791184.0
2,9, 1, 9, 0, 2, 0.00,60.00,Monday
135,57609860.1137362
3420,57609860.1137362
3738,6791184.0
2,9, 1, 9, 0, 3, 0.00,60.00,Monday
135,57609860.1137362
3420,57609860.1137362
3738,6791184.0
2,9, 1, 9, 0, 4, 0.00,60.00,Monday
135,57609860.1137362
3420,57609860.1137362
3738,6791184.0
2,9, 1, 9, 0, 5, 0.00,60.00,Monday
135,57609860.1137362
3420,57609860.1137362
3738,6791184.0
2,9, 1, 9, 0, 6, 0.00,60.00,Monday
135,57609860.1137362
3420,57609860.1137362
3738,6791184.0
2,9, 1, 9, 0, 7, 0.00,60.00,Monday
135,132808385.69060972
3420,132808385.69060972
3738,6791184.0
2,9, 1, 9, 0, 8, 0.00,60.00,Monday
135,224188076.19097772
3420,224188076.19097772
3738,138904933.41197369
2,9, 1, 9, 0, 9, 0.00,60.00,Monday
135,315084348.35504276
3420,315084348.35504276
3738,84767399.32509771
2,9, 1, 9, 0,10, 0.00,60.00,Monday
135,274065536.63705236
3420,274065536.6370523
3738,60052433.890497744
2,9, 1, 9, 0,11, 0.00,60.00,Monday
135,268961865.6908986
3420,268961865.69089854
3738,24927304.64066711
2,9, 1, 9, 0,12, 0.00,60.00,Monday
135,287043576.91311353
3420,287043576.91311353
3738,20903858.67172978
2,9, 1, 9, 0,13, 0.00,60.00,Monday
135,289887440.6111721
3420,289887440.6111721
3738,31377117.929761972
2,9, 1, 9, 0,14, 0.00,60.00,Monday
135,305645160.563438
3420,305645160.563438
3738,26214860.526391886
2,9, 1, 9, 0,15, 0.00,60.00,Monday
135,299374922.27768713
3420,299374922.27768713
3738,20170811.267978273
2,9, 1, 9, 0,16, 0.00,60.00,Monday
135,307877210.9016242
3420,307877210.90162414
3738,15657223.370380394
2,9, 1, 9, 0,17, 0.00,60.00,Monday
135,318841947.36405116
3420,318841947.3640511
3738,25337007.377459932
2,9, 1, 9, 0,18, 0.00,60.00,Monday
135,241584080.0329522
3420,241584080.0329522
3738,13362532.967267547
2,9, 1, 9, 0,19, 0.00,60.00,Monday
135,131773319.64493135
3420,131773319.64493135
3738,35146200.8165543
2,9, 1, 9, 0,20, 0.00,60.00,Monday
135,113939629.72914718
3420,113939629.72914718
3738,44795341.772812575
2,9, 1, 9, 0,21, 0.00,60.00,Monday
135,104928885.44956553
3420,104928885.44956553
3738,34529027.737346664
2,9, 1, 9, 0,22, 0.00,60.00,Monday
135,102017545.28910926
3420,102017545.28910926
3738,41841325.45734171
2,9, 1, 9, 0,23, 0.00,60.00,Monday
135,77772390.65670998
3420,77772390.65670998
3738,6791184.0
2,9, 1, 9, 0,24, 0.00,60.00,Monday
135,72442274.24247962
3420,72442274.24247962
3738,6791184.0
2,10, 1,10, 0, 1, 0.00,60.00,Tuesday
135,57996196.7332391
3420,57996196.7332391
3738,6791184.0
2,10, 1,10, 0, 2, 0.00,60.00,Tuesday
135,57609860.1137362
3420,57609860.1137362
3738,6791184.0
2,10, 1,10, 0, 3, 0.00,60.00,Tuesday
135,57609860.1137362
3420,57609860.1137362
3738,6791184.0
2,10, 1,10, 0, 4, 0.00,60.00,Tuesday
135,57609860.1137362
3420,57609860.1137362
3738,6791184.0
2,10, 1,10, 0, 5, 0.00,60.00,Tuesday
135,57609860.1137362
3420,57609860.1137362
3738,6791184.0
2,10, 1,10, 0, 6, 0.00,60.00,Tuesday
135,57609860.1137362
3420,57609860.1137362
3738,6791184.0
2,10, 1,10, 0, 7, 0.00,60.00,Tuesday
135,114590617.7548427
3420,114590617.7548427
3738,6791184.0
2,10, 1,10, 0, 8, 0.00,60.00,Tuesday
135,197705913.0147522
3420,197705913.0147522
3738,153037420.07477358
2,10, 1,10, 0, 9, 0.00,60.00,Tuesday
135,308392380.4012367
3420,308392380.40123665
3738,98308734.26938705
2,10, 1,10, 0,10, 0.00,60.00,Tuesday
135,268566673.27098775
3420,268566673.27098775
3738,76950544.60815217
2,10, 1,10, 0,11, 0.00,60.00,Tuesday
135,260873981.90311304
3420,260873981.90311304
3738,66845476.8184404
2,10, 1,10, 0,12, 0.00,60.00,Tuesday
135,270675126.84699315
3420,270675126.84699315
3738,77735529.21414624
2,10, 1,10, 0,13, 0.00,60.00,Tuesday
135,290704038.8273568
3420,290704038.8273568
3738,59717349.57493732
2,10, 1,10, 0,14, 0.00,60.00,Tuesday
135,286449186.9181068
3420,286449186.9181068
3738,37410312.76475565
2,10, 1,10, 0,15, 0.00,60.00,Tuesday
135,278496360.6982976
3420,278496360.6982976
3738,16058045.716410864
2,10, 1,10, 0,16, 0.00,60.00,Tuesday
135,280827424.4239217
3420,280827424.4239217
3738,17465395.86155279
2,10, 1,10, 0,17, 0.00,60.00,Tuesday
135,292758790.1264548
3420,292758790.1264548
3738,23449109.12897429
2,10, 1,10, 0,18, 0.00,60.00,Tuesday
135,250128533.1838857
3420,250128533.1838857
3738,40737153.57897746
2,10, 1,10, 0,19, 0.00,60.00,Tuesday
135,131092444.15789679
3420,131092444.15789679
3738,82125874.89581254
2,10, 1,10, 0,20, 0.00,60.00,Tuesday
135,114167459.14510965
3420,114167459.14510965
3738,85823143.8770788
2,10, 1,10, 0,21, 0.00,60.00,Tuesday
135,105484490.81576186
3420,105484490.8157619
3738,95207167.10349801
2,10, 1,10, 0,22, 0.00,60.00,Tuesday
135,104638030.82095909
3420,104638030.82095912
3738,107792135.93869716
2,10, 1,10, 0,23, 0.00,60.00,Tuesday
135,77772390.65670998
3420,77772390.65670998
3738,6791184.0
2,10, 1,10, 0,24, 0.00,60.00,Tuesday
135,72442274.24247962
3420,72442274.24247962
3738,6791184.0
2,11, 1,11, 0, 1, 0.00,60.00,Wednesday
135,57996196.7332391
3420,57996196.7332391
3738,6791184.0
2,11, 1,11, 0, 2, 0.00,60.00,Wednesday
135,57609860.1137362
3420,57609860.1137362
3738,6791184.0
2,11, 1,11, 0, 3, 0.00,60.00,Wednesday
135,57609860.1137362
3420,57609860.1137362
3738,6791184.0
2,11, 1,11, 0, 4, 0.00,60.00,Wednesday
135,57609860.1137362
3420,57609860.1137362
3738,6791184.0
2,11, 1,11, 0, 5, 0.00,60.00,Wednesday
135,57609860.1137362
3420,57609860.1137362
3738,6791184.0
2,11, 1,11, 0, 6, 0.00,60.00,Wednesday
135,57609860.1137362
3420,57609860.1137362
3738,6791184.0
2,11, 1,11, 0, 7, 0.00,60.00,Wednesday
135,109602967.2225844
3420,109602967.2225844
3738,6791184.0
2,11, 1,11, 0, 8, 0.00,60.00,Wednesday
135,191472262.5472529
3420,191472262.5472529
3738,95611767.1422369
2,11, 1,11, 0, 9, 0.00,60.00,Wednesday
135,304793375.8951398
3420,304793375.8951398
3738,64966865.549541846
2,11, 1,11, 0,10, 0.00,60.00,Wednesday
135,267249729.08543256
3420,267249729.08543253
3738,51361903.1290971
2,11, 1,11, 0,11, 0.00,60.00,Wednesday
135,261026349.20335332
3420,261026349.20335332
3738,23419131.434919413
2,11, 1,11, 0,12, 0.00,60.00,Wednesday
135,269722932.63319963
3420,269722932.6331996
3738,31562781.507311635
2,11, 1,11, 0,13, 0.00,60.00,Wednesday
135,276194040.2040595
3420,276194040.2040594
3738,45729468.22394581
2,11, 1,11, 0,14, 0.00,60.00,Wednesday
135,273624016.1243773
3420,273624016.12437725
3738,33720958.440037236
2,11, 1,11, 0,15, 0.00,60.00,Wednesday
135,259587270.9257763
3420,259587270.92577627
3738,24341383.308860123
2,11, 1,11, 0,16, 0.00,60.00,Wednesday
135,259920086.87503427
3420,259920086.87503427
3738,31899199.702789415
2,11, 1,11, 0,17, 0.00,60.00,Wednesday
135,277073305.88055664
3420,277073305.8805566
3738,59916919.652625985
2,11, 1,11, 0,18, 0.00,60.00,Wednesday
135,242000759.49334735
3420,242000759.49334735
3738,63197100.01206832
2,11, 1,11, 0,19, 0.00,60.00,Wednesday
135,131897798.58388802
3420,131897798.58388802
3738,93182081.01176119
2,11, 1,11, 0,20, 0.00,60.00,Wednesday
135,114469763.75492135
3420,114469763.75492135
3738,102002786.46677127
2,11, 1,11, 0,21, 0.00,60.00,Wednesday
135,106135662.47270277
3420,106135662.47270279
3738,101465710.75113454
2,11, 1,11, 0,22, 0.00,60.00,Wednesday
135,104615032.78506806
3420,104615032.78506808
3738,111871378.49629202
2,11, 1,11, 0,23, 0.00,60.00,Wednesday
135,77772390.65670998
3420,77772390.65670998
3738,6791184.0
2,11, 1,11, 0,24, 0.00,60.00,Wednesday
135,72442274.24247962
3420,72442274.24247962
3738,6791184.0
2,12, 1,12, 0, 1, 0.00,60.00,Thursday
135,57996196.7332391
3420,57996196.7332391
3738,6791184.0
2,12, 1,12, 0, 2, 0.00,60.00,Thursday
135,57609860.1137362
3420,57609860.1137362
3738,6791184.0
2,12, 1,12, 0, 3, 0.00,60.00,Thursday
135,57609860.1137362
3420,57609860.1137362
3738,6791184.0
2,12, 1,12, 0, 4, 0.00,60.00,Thursday
135,57609860.1137362
3420,57609860.1137362
3738,6791184.0
2,12, 1,12, 0, 5, 0.00,60.00,Thursday
135,57609860.1137362
3420,57609860.1137362
3738,6791184.0
2,12, 1,12, 0, 6, 0.00,60.00,Thursday
135,57609860.1137362
3420,57609860.1137362
3738,6791184.0
2,12, 1,12, 0, 7, 0.00,60.00,Thursday
135,113636133.74781513
3420,113636133.74781515
3738,6791184.0
2,12, 1,12, 0, 8, 0.00,60.00,Thursday
135,196603751.27363715
3420,196603751.2736371
3738,142794502.00625265
2,12, 1,12, 0, 9, 0.00,60.00,Thursday
135,311331415.91380876
3420,311331415.91380876
3738,92714795.72997922
2,12, 1,12, 0,10, 0.00,60.00,Thursday
135,268333777.08710903
3420,268333777.08710903
3738,79886485.43571503
2,12, 1,12, 0,11, 0.00,60.00,Thursday
135,261579373.84816587
3420,261579373.84816587
3738,63859212.993323855
2,12, 1,12, 0,12, 0.00,60.00,Thursday
135,273667945.19400245
3420,273667945.1940024
3738,58532221.8977678
2,12, 1,12, 0,13, 0.00,60.00,Thursday
135,293032762.94952226
3420,293032762.94952226
3738,50848106.92408982
2,12, 1,12, 0,14, 0.00,60.00,Thursday
135,284398542.3723735
3420,284398542.3723735
3738,47095874.33170484
2,12, 1,12, 0,15, 0.00,60.00,Thursday
135,269038812.45028347
3420,269038812.4502834
3738,27477340.506344408
2,12, 1,12, 0,16, 0.00,60.00,Thursday
135,268858569.88566655
3420,268858569.88566655
3738,35606034.01685708
2,12, 1,12, 0,17, 0.00,60.00,Thursday
135,287465447.51510334
3420,287465447.5151033
3738,42598885.38211618
2,12, 1,12, 0,18, 0.00,60.00,Thursday
135,249435284.66671848
3420,249435284.66671848
3738,56391247.2555284
2,12, 1,12, 0,19, 0.00,60.00,Thursday
135,134172233.29485723
3420,134172233.2948572
3738,84553547.03302525
2,12, 1,12, 0,20, 0.00,60.00,Thursday
135,114121408.89081514
3420,114121408.89081514
3738,81756528.20441394
2,12, 1,12, 0,21, 0.00,60.00,Thursday
135,105714332.61507402
3420,105714332.61507405
3738,85360342.20116624
2,12, 1,12, 0,22, 0.00,60.00,Thursday
135,103113220.44160616
3420,103113220.4416062
3738,87862142.71863286
2,12, 1,12, 0,23, 0.00,60.00,Thursday
135,77772390.65670998
3420,77772390.65670998
3738,6791184.0
2,12, 1,12, 0,24, 0.00,60.00,Thursday
135,72442274.24247962
3420,72442274.24247962
3738,6791184.0
2,13, 1,13, 0, 1, 0.00,60.00,Friday
135,57996196.7332391
3420,57996196.7332391
3738,6791184.0