Program Version,EnergyPlus, Version 9.6.0-f420c06a69, YMD=2022.07.16 15:16
1,5,Environment Title[],Latitude[deg],Longitude[deg],Time Zone[],Elevation[m]
2,8,Day of Simulation[],Month[],Day of Month[],DST Indicator[1=yes 0=no],Hour[],StartMinute[],EndMinute[],DayType
3,5,Cumulative Day of Simulation[],Month[],Day of Month[],DST Indicator[1=yes 0=no],DayType  ! When Daily Meters Requested
4,2,Cumulative Days of Simulation[],Month[]  ! When Monthly Meters Requested
5,1,Cumulative Days of Simulation[] ! When Run Period Meters Requested
6,1,Calendar Year of Simulation[] ! When Annual Meters Requested
135,1,Electricity:Facility [J] !Hourly
3420,1,ElectricityNet:Facility [J] !Hourly
3738,1,NaturalGas:Facility [J] !Hourly
End of Data Dictionary
1,RUNPERIOD 1,  35.04,-106.62,  -7.00,1619.00
2,1, 1, 1, 0, 1, 0.00,60.00,Holiday
135,46359074.93593144
3420,46359074.93593143
3738,6791184.0
2,1, 1, 1, 0, 2, 0.00,60.00,Holiday
135,46359235.70955593
3420,46359235.709555924
3738,6791184.0
2,1, 1, 1, 0, 3, 0.00,60.00,Holiday
135,46359235.70955593
3420,46359235.709555924
3738,6791184.0
2,1, 1, 1, 0, 4, 0.00,60.00,Holiday
135,46359235.70955593
3420,46359235.709555924
3738,6791184.0
2,1, 1, 1, 0, 5, 0.00,60.00,Holiday
135,46359235.70955593
3420,46359235.709555924
3738,6791184.0
2,1, 1, 1, 0, 6, 0.00,60.00,Holiday
135,46359235.70955593
3420,46359235.709555924
3738,6791184.0
2,1, 1, 1, 0, 7, 0.00,60.00,Holiday
135,66032185.73006148
3420,66032185.73006148
3738,6791184.0
2,1, 1, 1, 0, 8, 0.00,60.00,Holiday
135,50074623.774579875
3420,50074623.774579875
3738,6791184.0
2,1, 1, 1, 0, 9, 0.00,60.00,Holiday
135,46351708.9331394
3420,46351708.9331394
3738,6791184.0
2,1, 1, 1, 0,10, 0.00,60.00,Holiday
135,46288813.17904917
3420,46288813.179049164
3738,6791184.0
2,1, 1, 1, 0,11, 0.00,60.00,Holiday
135,51149014.50787013
3420,51149014.50787013
3738,6791184.0
2,1, 1, 1, 0,12, 0.00,60.00,Holiday
135,53542591.30173427
3420,53542591.30173427
3738,6791184.0
2,1, 1, 1, 0,13, 0.00,60.00,Holiday
135,54827857.64153222
3420,54827857.64153222
3738,6791184.0
2,1, 1, 1, 0,14, 0.00,60.00,Holiday
135,61196507.52122828
3420,61196507.5212283
3738,6791184.0
2,1, 1, 1, 0,15, 0.00,60.00,Holiday
135,67239153.60782859
3420,67239153.60782859
3738,6791184.0
2,1, 1, 1, 0,16, 0.00,60.00,Holiday
135,64721412.807741076
3420,64721412.80774109
3738,6791184.0
2,1, 1, 1, 0,17, 0.00,60.00,Holiday
135,55473596.479658276
3420,55473596.479658276
3738,6791184.0
2,1, 1, 1, 0,18, 0.00,60.00,Holiday
135,66905826.86107348
3420,66905826.86107348
3738,6791184.0
2,1, 1, 1, 0,19, 0.00,60.00,Holiday
135,57105773.81922845
3420,57105773.81922844
3738,6791184.0
2,1, 1, 1, 0,20, 0.00,60.00,Holiday
135,48904615.70955593
3420,48904615.70955593
3738,6791184.0
2,1, 1, 1, 0,21, 0.00,60.00,Holiday
135,48904615.70955593
3420,48904615.70955593
3738,6791184.0
2,1, 1, 1, 0,22, 0.00,60.00,Holiday
135,48904615.70955593
3420,48904615.70955593
3738,6791184.0
2,1, 1, 1, 0,23, 0.00,60.00,Holiday
135,48904615.70955593
3420,48904615.70955593
3738,6791184.0
2,1, 1, 1, 0,24, 0.00,60.00,Holiday
135,48904615.70955593
3420,48904615.70955593
3738,6791184.0
2,2, 1, 2, 0, 1, 0.00,60.00,Monday
135,57609860.1137362
3420,57609860.1137362
3738,6791184.0
2,2, 1, 2, 0, 2, 0.00,60.00,Monday
135,57609860.1137362
3420,57609860.1137362
3738,6791184.0
2,2, 1, 2, 0, 3, 0.00,60.00,Monday
135,57609860.1137362
3420,57609860.1137362
3738,6791184.0
2,2, 1, 2, 0, 4, 0.00,60.00,Monday
135,57609860.1137362
3420,57609860.1137362
3738,6791184.0
2,2, 1, 2, 0, 5, 0.00,60.00,Monday
135,57609860.1137362
3420,57609860.1137362
3738,6791184.0
2,2, 1, 2, 0, 6, 0.00,60.00,Monday
135,57609860.1137362
3420,57609860.1137362
3738,6791184.0
2,2, 1, 2, 0, 7, 0.00,60.00,Monday
135,127996825.63454857
3420,127996825.63454857
3738,6791184.0
2,2, 1, 2, 0, 8, 0.00,60.00,Monday
135,215776918.25572556
3420,215776918.25572553
3738,138020718.205081
2,2, 1, 2, 0, 9, 0.00,60.00,Monday
135,308779831.98790205
3420,308779831.98790205
3738,82873177.66038454
2,2, 1, 2, 0,10, 0.00,60.00,Monday
135,272391633.6877966
3420,272391633.68779653
3738,53951717.89646106
2,2, 1, 2, 0,11, 0.00,60.00,Monday
135,270626858.73905873
3420,270626858.73905873
3738,16290746.029742379
2,2, 1, 2, 0,12, 0.00,60.00,Monday
135,289695713.59204376
3420,289695713.59204376
3738,20876788.629584327
2,2, 1, 2, 0,13, 0.00,60.00,Monday
135,291132855.59700644
3420,291132855.59700644
3738,31334466.06780298
2,2, 1, 2, 0,14, 0.00,60.00,Monday
135,307451390.0802125
3420,307451390.0802125
3738,26165957.6355664
2,2, 1, 2, 0,15, 0.00,60.00,Monday
135,299679724.05352545
3420,299679724.0535254
3738,16608226.14002804
2,2, 1, 2, 0,16, 0.00,60.00,Monday
135,303922296.99352103
3420,303922296.9935209
3738,19132378.032246538
2,2, 1, 2, 0,17, 0.00,60.00,Monday
135,303569244.3152976
3420,303569244.31529754
3738,20696667.22093725
2,2, 1, 2, 0,18, 0.00,60.00,Monday
135,238419262.09615445
3420,238419262.09615445
3738,24733714.972098723
2,2, 1, 2, 0,19, 0.00,60.00,Monday
135,131007168.36893031
3420,131007168.36893031
3738,59727868.89450452
2,2, 1, 2, 0,20, 0.00,60.00,Monday
135,115209175.32196084
3420,115209175.32196084
3738,75214162.80369306
2,2, 1, 2, 0,21, 0.00,60.00,Monday
135,106764029.67706622
3420,106764029.67706625
3738,91003836.86024387
2,2, 1, 2, 0,22, 0.00,60.00,Monday
135,104617760.11182132
3420,104617760.11182137
3738,94759912.65485768
2,2, 1, 2, 0,23, 0.00,60.00,Monday
135,77772390.65670998
3420,77772390.65670998
3738,6791184.0
2,2, 1, 2, 0,24, 0.00,60.00,Monday
135,72442274.24247962
3420,72442274.24247962
3738,6791184.0
2,3, 1, 3, 0, 1, 0.00,60.00,Tuesday
135,57996196.7332391
3420,57996196.7332391
3738,6791184.0
2,3, 1, 3, 0, 2, 0.00,60.00,Tuesday
135,57609860.1137362
3420,57609860.1137362
3738,6791184.0
2,3, 1, 3, 0, 3, 0.00,60.00,Tuesday
135,57609860.1137362
3420,57609860.1137362
3738,6791184.0
2,3, 1, 3, 0, 4, 0.00,60.00,Tuesday
135,57609860.1137362
3420,57609860.1137362
3738,6791184.0
2,3, 1, 3, 0, 5, 0.00,60.00,Tuesday
135,57609860.1137362
3420,57609860.1137362
3738,6791184.0
2,3, 1, 3, 0, 6, 0.00,60.00,Tuesday
135,57609860.1137362
3420,57609860.1137362
3738,6791184.0
2,3, 1, 3, 0, 7, 0.00,60.00,Tuesday
135,114272999.19205728
3420,114272999.19205725
3738,6791184.0
2,3, 1, 3, 0, 8, 0.00,60.00,Tuesday
135,195627540.66692612
3420,195627540.66692612
3738,160739584.9490872
2,3, 1, 3, 0, 9, 0.00,60.00,Tuesday
135,311292299.4181249
3420,311292299.4181249
3738,97401706.49671939
2,3, 1, 3, 0,10, 0.00,60.00,Tuesday
135,273173879.504535
3420,273173879.504535
3738,62273165.14803708
2,3, 1, 3, 0,11, 0.00,60.00,Tuesday
135,270993145.5591444
3420,270993145.5591443
3738,27068487.355871446
2,3, 1, 3, 0,12, 0.00,60.00,Tuesday
135,289325501.24911636
3420,289325501.2491163
3738,23932397.81714955
2,3, 1, 3, 0,13, 0.00,60.00,Tuesday
135,289062290.1360926
3420,289062290.13609254
3738,31352304.016845077
2,3, 1, 3, 0,14, 0.00,60.00,Tuesday
135,305969855.86213106
3420,305969855.86213106
3738,26179314.534692463
2,3, 1, 3, 0,15, 0.00,60.00,Tuesday
135,298330170.06170243
3420,298330170.0617024
3738,20137385.87750515
2,3, 1, 3, 0,16, 0.00,60.00,Tuesday
135,303338994.43658864
3420,303338994.43658864
3738,15644230.887160052
2,3, 1, 3, 0,17, 0.00,60.00,Tuesday
135,311131522.6624116
3420,311131522.6624116
3738,20681942.94777296
2,3, 1, 3, 0,18, 0.00,60.00,Tuesday
135,245205119.18371874
3420,245205119.18371874
3738,40306380.08053717
2,3, 1, 3, 0,19, 0.00,60.00,Tuesday
135,130849190.55250779
3420,130849190.55250779
3738,76921698.94171913
2,3, 1, 3, 0,20, 0.00,60.00,Tuesday
135,113864772.30489445
3420,113864772.30489445
3738,97693166.23598628
2,3, 1, 3, 0,21, 0.00,60.00,Tuesday
135,104851460.80443028
3420,104851460.80443028
3738,106724235.27237682
2,3, 1, 3, 0,22, 0.00,60.00,Tuesday
135,103564656.50436236
3420,103564656.50436239
3738,135255792.46144733
2,3, 1, 3, 0,23, 0.00,60.00,Tuesday
135,77772390.65670998
3420,77772390.65670998
3738,6791184.0
2,3, 1, 3, 0,24, 0.00,60.00,Tuesday
135,72442274.24247962
3420,72442274.24247962
3738,6791184.0
2,4, 1, 4, 0, 1, 0.00,60.00,Wednesday
135,57996196.7332391
3420,57996196.7332391
3738,6791184.0
2,4, 1, 4, 0, 2, 0.00,60.00,Wednesday
135,57609860.1137362
3420,57609860.1137362
3738,6791184.0
2,4, 1, 4, 0, 3, 0.00,60.00,Wednesday
135,57609860.1137362
3420,57609860.1137362
3738,6791184.0
2,4, 1, 4, 0, 4, 0.00,60.00,Wednesday
135,57609860.1137362
3420,57609860.1137362
3738,6791184.0
2,4, 1, 4, 0, 5, 0.00,60.00,Wednesday
135,57609860.1137362
3420,57609860.1137362
3738,6791184.0
2,4, 1, 4, 0, 6, 0.00,60.00,Wednesday
135,57609860.1137362
3420,57609860.1137362
3738,6791184.0
2,4, 1, 4, 0, 7, 0.00,60.00,Wednesday
135,119018817.31697597
3420,119018817.31697598
3738,6791184.0
2,4, 1, 4, 0, 8, 0.00,60.00,Wednesday
135,210386521.74613553
3420,210386521.74613553
3738,191978269.09900388
2,4, 1, 4, 0, 9, 0.00,60.00,Wednesday
135,314998090.45963436
3420,314998090.4596344
3738,121111262.89126968
2,4, 1, 4, 0,10, 0.00,60.00,Wednesday
135,268537704.1172425
3420,268537704.11724246
3738,89571538.4903115
2,4, 1, 4, 0,11, 0.00,60.00,Wednesday
135,260486103.16666308
3420,260486103.16666305
3738,69381817.36897765
2,4, 1, 4, 0,12, 0.00,60.00,Wednesday
135,273565391.8337704
3420,273565391.83377033
3738,54022732.09397643
2,4, 1, 4, 0,13, 0.00,60.00,Wednesday
135,286489145.5837928
3420,286489145.5837928
3738,43148842.02127235
2,4, 1, 4, 0,14, 0.00,60.00,Wednesday
135,286654800.15479994
3420,286654800.15479994
3738,27276365.451202832
2,4, 1, 4, 0,15, 0.00,60.00,Wednesday
135,271749397.7147403
3420,271749397.7147402
3738,20161713.329391584
2,4, 1, 4, 0,16, 0.00,60.00,Wednesday
135,271660387.42310035
3420,271660387.4231003
3738,16141493.00278312
2,4, 1, 4, 0,17, 0.00,60.00,Wednesday
135,291580899.5405933
3420,291580899.54059327
3738,33377610.434392393
2,4, 1, 4, 0,18, 0.00,60.00,Wednesday
135,250820557.58683148
3420,250820557.58683142
3738,40789568.47932025
2,4, 1, 4, 0,19, 0.00,60.00,Wednesday
135,131492296.18898878
3420,131492296.18898878
3738,68182576.60189918
2,4, 1, 4, 0,20, 0.00,60.00,Wednesday
135,113600218.279145
3420,113600218.279145
3738,80857786.2895283
2,4, 1, 4, 0,21, 0.00,60.00,Wednesday
135,105708099.83940351
3420,105708099.83940351
3738,92055361.61964828
2,4, 1, 4, 0,22, 0.00,60.00,Wednesday
135,104392670.77178226
3420,104392670.77178228
3738,101035046.87512946
2,4, 1, 4, 0,23, 0.00,60.00,Wednesday
135,77772390.65670998
3420,77772390.65670998
3738,6791184.0
2,4, 1, 4, 0,24, 0.00,60.00,Wednesday
135,72442274.24247962
3420,72442274.24247962
3738,6791184.0
2,5, 1, 5, 0, 1, 0.00,60.00,Thursday
135,57996196.7332391
3420,57996196.7332391
3738,6791184.0
2,5, 1, 5, 0, 2, 0.00,60.00,Thursday
135,57609860.1137362
3420,57609860.1137362
3738,6791184.0
2,5, 1, 5, 0, 3, 0.00,60.00,Thursday
135,57609860.1137362
3420,57609860.1137362
3738,6791184.0
2,5, 1, 5, 0, 4, 0.00,60.00,Thursday
135,57609860.1137362
3420,57609860.1137362
3738,6791184.0
2,5, 1, 5, 0, 5, 0.00,60.00,Thursday
135,57609860.1137362
3420,57609860.1137362
3738,6791184.0
2,5, 1, 5, 0, 6, 0.00,60.00,Thursday
135,57609860.1137362
3420,57609860.1137362
3738,6791184.0
2,5, 1, 5, 0, 7, 0.00,60.00,Thursday
135,104914987.62185238
3420,104914987.62185238
3738,6791184.0
2,5, 1, 5, 0, 8, 0.00,60.00,Thursday
135,188585469.45376477
3420,188585469.45376474
3738,128251601.34643246
2,5, 1, 5, 0, 9, 0.00,60.00,Thursday
135,311005544.2995983
3420,311005544.29959834
3738,68111198.76030216
2,5, 1, 5, 0,10, 0.00,60.00,Thursday
135,276872793.7846596
3420,276872793.7846596
3738,22268924.20266997
2,5, 1, 5, 0,11, 0.00,60.00,Thursday
135,275725745.31159234
3420,275725745.31159234
3738,11332609.305025332
2,5, 1, 5, 0,12, 0.00,60.00,Thursday
135,288587071.1486895
3420,288587071.14868945
3738,20890910.412630815
2,5, 1, 5, 0,13, 0.00,60.00,Thursday
135,292966741.3255711
3420,292966741.32557106
3738,31320758.56477327
2,5, 1, 5, 0,14, 0.00,60.00,Thursday
135,314523656.0991129
3420,314523656.09911287
3738,26188880.42244211
2,5, 1, 5, 0,15, 0.00,60.00,Thursday
135,307527318.24370044
3420,307527318.2437004
3738,20203246.733703516
2,5, 1, 5, 0,16, 0.00,60.00,Thursday
135,311098204.0356895
3420,311098204.0356894
3738,15641077.23265736
2,5, 1, 5, 0,17, 0.00,60.00,Thursday
135,314697742.7147877
3420,314697742.71478766
3738,25322148.030894917
2,5, 1, 5, 0,18, 0.00,60.00,Thursday
135,244439025.44732004
3420,244439025.4473201
3738,11107624.059939679
2,5, 1, 5, 0,19, 0.00,60.00,Thursday
135,132437121.43784618
3420,132437121.43784618
3738,14296005.443500213
2,5, 1, 5, 0,20, 0.00,60.00,Thursday
135,113569604.38930234
3420,113569604.38930234
3738,29969099.692790687
2,5, 1, 5, 0,21, 0.00,60.00,Thursday
135,102910895.06207252
3420,102910895.06207252
3738,41812378.51001367
2,5, 1, 5, 0,22, 0.00,60.00,Thursday
135,98426054.06307875
3420,98426054.06307875
3738,59317372.036805585
2,5, 1, 5, 0,23, 0.00,60.00,Thursday
135,77772390.65670998
3420,77772390.65670998
3738,6791184.0
2,5, 1, 5, 0,24, 0.00,60.00,Thursday
135,72442274.24247962
3420,72442274.24247962
3738,6791184.0
2,6, 1, 6, 0, 1, 0.00,60.00,Friday
135,57996196.7332391
3420,57996196.7332391
3738,6791184.0
2,6, 1, 6, 0, 2, 0.00,60.00,Friday
135,57609860.1137362
3420,57609860.1137362
3738,6791184.0
2,6, 1, 6, 0, 3, 0.00,60.00,Friday
135,57609860.1137362
3420,57609860.1137362
3738,6791184.0
2,6, 1, 6, 0, 4, 0.00,60.00,Friday
135,57609860.1137362
3420,57609860.1137362
3738,6791184.0
2,6, 1, 6, 0, 5, 0.00,60.00,Friday
135,57609860.1137362
3420,57609860.1137362
3738,6791184.0
2,6, 1, 6, 0, 6, 0.00,60.00,Friday
135,57609860.1137362
3420,57609860.1137362
3738,6791184.0
2,6, 1, 6, 0, 7, 0.00,60.00,Friday
135,104235830.7115186
3420,104235830.71151862
3738,6791184.0
2,6, 1, 6, 0, 8, 0.00,60.00,Friday
135,190830704.6859626
3420,190830704.6859626
3738,119892280.38705662
2,6, 1, 6, 0, 9, 0.00,60.00,Friday
135,313136049.34688765
3420,313136049.3468877
3738,83292517.49032894
2,6, 1, 6, 0,10, 0.00,60.00,Friday
135,269908802.3261272
3420,269908802.3261271
3738,75795428.42603499
2,6, 1, 6, 0,11, 0.00,60.00,Friday
135,262376016.44587368
3420,262376016.44587368
3738,61034506.097108155
2,6, 1, 6, 0,12, 0.00,60.00,Friday
135,278956677.17413664
3420,278956677.1741366
3738,45015344.0781741
2,6, 1, 6, 0,13, 0.00,60.00,Friday
135,286617519.5017164
3420,286617519.5017164
3738,27592703.80754181
2,6, 1, 6, 0,14, 0.00,60.00,Friday
135,298881312.8236708
3420,298881312.82367074
3738,29966165.316559106
2,6, 1, 6, 0,15, 0.00,60.00,Friday
135,288050211.4479014
3420,288050211.4479014
3738,15682482.24722704
2,6, 1, 6, 0,16, 0.00,60.00,Friday
135,290617888.35447925
3420,290617888.35447925
3738,20084686.25582639
2,6, 1, 6, 0,17, 0.00,60.00,Friday
135,302130251.7709689
3420,302130251.7709689
3738,20706024.125077643
2,6, 1, 6, 0,18, 0.00,60.00,Friday
135,251114221.59341425
3420,251114221.5934142
3738,50849694.0717029
2,6, 1, 6, 0,19, 0.00,60.00,Friday
135,131474996.63653886
3420,131474996.63653886
3738,71307798.52171509
2,6, 1, 6, 0,20, 0.00,60.00,Friday
135,113591998.94390081
3420,113591998.94390081
3738,76413752.1200638
2,6, 1, 6, 0,21, 0.00,60.00,Friday
135,104569087.16922267
3420,104569087.16922268
3738,93726317.32048595
2,6, 1, 6, 0,22, 0.00,60.00,Friday
135,101371296.02841185
3420,101371296.02841187
3738,92589503.46063066
2,6, 1, 6, 0,23, 0.00,60.00,Friday
135,77772390.65670998
3420,77772390.65670998
3738,6791184.0
2,6, 1, 6, 0,24, 0.00,60.00,Friday
135,72442274.24247962
3420,72442274.24247962
3738,6791184.0
2,7, 1, 7, 0, 1, 0.00,60.00,Saturday
135,46745513.81922844
3420,46745513.81922843
3738,6791184.0
2,7, 1, 7, 0, 2, 0.00,60.00,Saturday
135,46359235.70955593
3420,46359235.709555924
3738,6791184.0
2,7, 1, 7, 0, 3, 0.00,60.00,Saturday
135,46359235.70955593
3420,46359235.709555924
3738,6791184.0
2,7, 1, 7, 0, 4, 0.00,60.00,Saturday
135,46359235.70955593
3420,46359235.709555924
3738,6791184.0
2,7, 1, 7, 0, 5, 0.00,60.00,Saturday
135,46359235.70955593
3420,46359235.709555924
3738,6791184.0
2,7, 1, 7, 0, 6, 0.00,60.00,Saturday
135,46359235.70955593
3420,46359235.709555924
3738,6791184.0
2,7, 1, 7, 0, 7, 0.00,60.00,Saturday
135,112469384.53818615
3420,112469384.53818613
3738,6791184.0
2,7, 1, 7, 0, 8, 0.00,60.00,Saturday
135,142488154.0293117
3420,142488154.02931166
3738,127101009.48329657
2,7, 1, 7, 0, 9, 0.00,60.00,Saturday
135,134407563.45865464
3420,134407563.45865464
3738,109776207.84970838
2,7, 1, 7, 0,10, 0.00,60.00,Saturday
135,135805499.5849411
3420,135805499.58494106
3738,96308872.4034262
2,7, 1, 7, 0,11, 0.00,60.00,Saturday
135,128480134.88520858
3420,128480134.88520855
3738,68570722.23300669
2,7, 1, 7, 0,12, 0.00,60.00,Saturday
135,138342614.75614232
3420,138342614.75614232
3738,29239005.366936855
2,7, 1, 7, 0,13, 0.00,60.00,Saturday
135,97620877.32794422
3420,97620877.32794422
3738,17871405.82835929
2,7, 1, 7, 0,14, 0.00,60.00,Saturday
135,86588824.64401537
3420,86588824.64401537
3738,18186066.643444195
2,7, 1, 7, 0,15, 0.00,60.00,Saturday
135,80777988.06353001
3420,80777988.06353001
3738,15505632.337660547
2,7, 1, 7, 0,16, 0.00,60.00,Saturday
135,76233398.28453368
3420,76233398.28453368
3738,23027737.140676267
2,7, 1, 7, 0,17, 0.00,60.00,Saturday
135,79126199.00452831
3420,79126199.00452833
3738,32110389.039155833
2,7, 1, 7, 0,18, 0.00,60.00,Saturday
135,83077160.33306564
3420,83077160.33306564
3738,45983767.29853912
2,7, 1, 7, 0,19, 0.00,60.00,Saturday
135,66276703.53612528
3420,66276703.53612528
3738,6791184.0
2,7, 1, 7, 0,20, 0.00,60.00,Saturday
135,49290893.81922844
3420,49290893.81922844
3738,6791184.0
2,7, 1, 7, 0,21, 0.00,60.00,Saturday
135,48904615.70955593
3420,48904615.70955593
3738,6791184.0
2,7, 1, 7, 0,22, 0.00,60.00,Saturday
135,48904615.70955593
3420,48904615.70955593
3738,6791184.0
2,7, 1, 7, 0,23, 0.00,60.00,Saturday
135,48904615.70955593
3420,48904615.70955593
3738,6791184.0
2,7, 1, 7, 0,24, 0.00,60.00,Saturday
135,48904615.70955593
3420,48904615.70955593
3738,6791184.0
2,8, 1, 8, 0, 1, 0.00,60.00,Sunday
135,46359235.70955593
3420,46359235.709555924
3738,6791184.0
2,8, 1, 8, 0, 2, 0.00,60.00,Sunday
135,46359235.70955593
3420,46359235.709555924
3738,6791184.0
2,8, 1, 8, 0, 3, 0.00,60.00,Sunday
135,46359235.70955593
3420,46359235.709555924
3738,6791184.0
2,8, 1, 8, 0, 4, 0.00,60.00,Sunday
135,46359235.70955593
3420,46359235.709555924
3738,6791184.0
2,8, 1, 8, 0, 5, 0.00,60.00,Sunday
135,46359235.70955593
3420,46359235.709555924
3738,6791184.0
2,8, 1, 8, 0, 6, 0.00,60.00,Sunday
135,46359235.70955593
3420,46359235.709555924
3738,6791184.0
2,8, 1, 8, 0, 7, 0.00,60.00,Sunday
135,66032185.73006148
3420,66032185.73006148
3738,6791184.0
2,8, 1, 8, 0, 8, 0.00,60.00,Sunday
135,53323580.330645084
3420,53323580.330645084
3738,6791184.0
2,8, 1, 8, 0, 9, 0.00,60.00,Sunday
135,46344166.24829911
3420,46344166.24829911
3738,6791184.0
2,8, 1, 8, 0,10, 0.00,60.00,Sunday
135,46288812.51597283
3420,46288812.51597283
3738,6791184.0
2,8, 1, 8, 0,11, 0.00,60.00,Sunday
135,47487122.44606896
3420,47487122.44606896
3738,6791184.0
2,8, 1, 8, 0,12, 0.00,60.00,Sunday
135,51525350.173561886
3420,51525350.17356188
3738,6791184.0
2,8, 1, 8, 0,13, 0.00,60.00,Sunday
135,53600609.95879048
3420,53600609.95879049
3738,6791184.0
2,8, 1, 8, 0,14, 0.00,60.00,Sunday
135,54375838.317788005
3420,54375838.317788005
3738,6791184.0
2,8, 1, 8, 0,15, 0.00,60.00,Sunday
135,53677901.56674968
3420,53677901.56674969
3738,6791184.0
2,8, 1, 8, 0,16, 0.00,60.00,Sunday
135,55530293.2507481
3420,55530293.2507481
3738,6791184.0
2,8, 1, 8, 0,17, 0.00,60.00,Sunday
135,49445249.33406233
3420,49445249.33406233
3738,6791184.0
2,8, 1, 8, 0,18, 0.00,60.00,Sunday
135,66276671.30593526
3420,66276671.30593526
3738,6791184.0
2,8, 1, 8, 0,19, 0.00,60.00,Sunday
135,57105773.81922845
3420,57105773.81922844
3738,6791184.0
2,8, 1, 8, 0,20, 0.00,60.00,Sunday
135,48904615.70955593
3420,48904615.70955593
3738,6791184.0
2,8, 1, 8, 0,21, 0.00,60.00,Sunday
135,48904615.70955593
3420,48904615.70955593
3738,6791184.0
2,8, 1, 8, 0,22, 0.00,60.00,Sunday
135,48904615.70955593
3420,48904615.70955593
3738,6791184.0
2,8, 1, 8, 0,23, 0.00,60.00,Sunday
135,48904615.70955593
3420,48904615.70955593
3738,6791184.0
2,8, 1, 8, 0,24, 0.00,60.00,Sunday
135,48904615.70955593
3420,48904615.70955593
3738,6791184.0
2,9, 1, 9, 0, 1, 0.00,60.00,Monday
135,57609860.1137362
3420,57609860.1137362
3738,6791184.0
2,9, 1, 9, 0, 2, 0.00,60.00,Monday
135,57609860.1137362
3420,57609860.1137362
3738,6791184.0
2,9, 1, 9, 0, 3, 0.00,60.00,Monday
135,57609860.1137362
3420,57609860.1137362
3738,6791184.0
2,9, 1, 9, 0, 4, 0.00,60.00,Monday
135,57609860.1137362
3420,57609860.1137362
3738,6791184.0
2,9, 1, 9, 0, 5, 0.00,60.00,Monday
135,57609860.1137362
3420,57609860.1137362
3738,6791184.0
2,9, 1, 9, 0, 6, 0.00,60.00,Monday
135,57609860.1137362
3420,57609860.1137362
3738,6791184.0
2,9, 1, 9, 0, 7, 0.00,60.00,Monday
135,127291351.99059643
3420,127291351.99059643
3738,6791184.0
2,9, 1, 9, 0, 8, 0.00,60.00,Monday
135,216049806.94663143
3420,216049806.9466314
3738,128169695.8456684
2,9, 1, 9, 0, 9, 0.00,60.00,Monday
135,314138341.9167691
3420,314138341.9167691
3738,77778673.42052111
2,9, 1, 9, 0,10, 0.00,60.00,Monday
135,274899793.20583874
3420,274899793.2058387
3738,51408862.48055864
2,9, 1, 9, 0,11, 0.00,60.00,Monday
135,271345491.5067541
3420,271345491.50675404
3738,16247006.395127183
2,9, 1, 9, 0,12, 0.00,60.00,Monday
135,286109400.0303045
3420,286109400.0303045
3738,20903857.81671024
2,9, 1, 9, 0,13, 0.00,60.00,Monday
135,285071925.09954125
3420,285071925.09954125
3738,31355574.371036477
2,9, 1, 9, 0,14, 0.00,60.00,Monday
135,300374779.31292665
3420,300374779.3129266
3738,26214926.42814015
2,9, 1, 9, 0,15, 0.00,60.00,Monday
135,295618033.8249522
3420,295618033.8249521
3738,20131559.38113821
2,9, 1, 9, 0,16, 0.00,60.00,Monday
135,304321042.34212226
3420,304321042.3421222
3738,15659342.825366624
2,9, 1, 9, 0,17, 0.00,60.00,Monday
135,313150006.6563957
3420,313150006.6563957
3738,25336254.159717686
2,9, 1, 9, 0,18, 0.00,60.00,Monday
135,241665826.4505057
3420,241665826.45050567
3738,11401285.515790986
2,9, 1, 9, 0,19, 0.00,60.00,Monday
135,131899823.56568539
3420,131899823.56568542
3738,26280286.89784581
2,9, 1, 9, 0,20, 0.00,60.00,Monday
135,113569604.38930234
3420,113569604.38930234
3738,34251908.59527297
2,9, 1, 9, 0,21, 0.00,60.00,Monday
135,103501553.63931248
3420,103501553.6393125
3738,24219819.108810063
2,9, 1, 9, 0,22, 0.00,60.00,Monday
135,100189899.70730978
3420,100189899.70730978
3738,31420832.451944135
2,9, 1, 9, 0,23, 0.00,60.00,Monday
135,77772390.65670998
3420,77772390.65670998
3738,6791184.0
2,9, 1, 9, 0,24, 0.00,60.00,Monday
135,72442274.24247962
3420,72442274.24247962
3738,6791184.0
2,10, 1,10, 0, 1, 0.00,60.00,Tuesday
135,57996196.7332391
3420,57996196.7332391
3738,6791184.0
2,10, 1,10, 0, 2, 0.00,60.00,Tuesday
135,57609860.1137362
3420,57609860.1137362
3738,6791184.0
2,10, 1,10, 0, 3, 0.00,60.00,Tuesday
135,57609860.1137362
3420,57609860.1137362
3738,6791184.0
2,10, 1,10, 0, 4, 0.00,60.00,Tuesday
135,57609860.1137362
3420,57609860.1137362
3738,6791184.0
2,10, 1,10, 0, 5, 0.00,60.00,Tuesday
135,57609860.1137362
3420,57609860.1137362
3738,6791184.0
2,10, 1,10, 0, 6, 0.00,60.00,Tuesday
135,57609860.1137362
3420,57609860.1137362
3738,6791184.0
2,10, 1,10, 0, 7, 0.00,60.00,Tuesday
135,110610535.63375746
3420,110610535.63375747
3738,6791184.0
2,10, 1,10, 0, 8, 0.00,60.00,Tuesday
135,190868828.50303972
3420,190868828.50303972
3738,142167387.1864638
2,10, 1,10, 0, 9, 0.00,60.00,Tuesday
135,308456526.39918154
3420,308456526.39918154
3738,91164533.82555601
2,10, 1,10, 0,10, 0.00,60.00,Tuesday
135,269988445.7885578
3420,269988445.7885578
3738,69658054.28233668
2,10, 1,10, 0,11, 0.00,60.00,Tuesday
135,262625651.77890778
3420,262625651.77890775
3738,59522075.04223947
2,10, 1,10, 0,12, 0.00,60.00,Tuesday
135,272394434.63685006
3420,272394434.6368501
3738,70053233.89294067
2,10, 1,10, 0,13, 0.00,60.00,Tuesday
135,289057248.70505404
3420,289057248.70505404
3738,51698336.85967963
2,10, 1,10, 0,14, 0.00,60.00,Tuesday
135,288740118.02715695
3420,288740118.0271569
3738,32951492.7567741
2,10, 1,10, 0,15, 0.00,60.00,Tuesday
135,280782794.93432623
3420,280782794.93432623
3738,16039162.426705867
2,10, 1,10, 0,16, 0.00,60.00,Tuesday
135,282681400.1349834
3420,282681400.13498336
3738,17486619.566244967
2,10, 1,10, 0,17, 0.00,60.00,Tuesday
135,294803090.59810543
3420,294803090.59810543
3738,23427096.74444875
2,10, 1,10, 0,18, 0.00,60.00,Tuesday
135,250077585.1183628
3420,250077585.11836284
3738,34129082.979551844
2,10, 1,10, 0,19, 0.00,60.00,Tuesday
135,130962818.86096215
3420,130962818.86096215
3738,71288756.8659243
2,10, 1,10, 0,20, 0.00,60.00,Tuesday
135,113569604.38930234
3420,113569604.38930234
3738,75422412.7967545
2,10, 1,10, 0,21, 0.00,60.00,Tuesday
135,103867704.56755315
3420,103867704.56755316
3738,84979936.26949202
2,10, 1,10, 0,22, 0.00,60.00,Tuesday
135,102189359.12521514
3420,102189359.12521514
3738,97894542.40279928
2,10, 1,10, 0,23, 0.00,60.00,Tuesday
135,77772390.65670998
3420,77772390.65670998
3738,6791184.0
2,10, 1,10, 0,24, 0.00,60.00,Tuesday
135,72442274.24247962
3420,72442274.24247962
3738,6791184.0
2,11, 1,11, 0, 1, 0.00,60.00,Wednesday
135,57996196.7332391
3420,57996196.7332391
3738,6791184.0
2,11, 1,11, 0, 2, 0.00,60.00,Wednesday
135,57609860.1137362
3420,57609860.1137362
3738,6791184.0
2,11, 1,11, 0, 3, 0.00,60.00,Wednesday
135,57609860.1137362
3420,57609860.1137362
3738,6791184.0
2,11, 1,11, 0, 4, 0.00,60.00,Wednesday
135,57609860.1137362
3420,57609860.1137362
3738,6791184.0
2,11, 1,11, 0, 5, 0.00,60.00,Wednesday
135,57609860.1137362
3420,57609860.1137362
3738,6791184.0
2,11, 1,11, 0, 6, 0.00,60.00,Wednesday
135,57609860.1137362
3420,57609860.1137362
3738,6791184.0
2,11, 1,11, 0, 7, 0.00,60.00,Wednesday
135,106148695.75912634
3420,106148695.75912632
3738,6791184.0
2,11, 1,11, 0, 8, 0.00,60.00,Wednesday
135,184535924.0638191
3420,184535924.06381914
3738,83321590.72708088
2,11, 1,11, 0, 9, 0.00,60.00,Wednesday
135,303269052.3731873
3420,303269052.3731873
3738,57756759.157788545
2,11, 1,11, 0,10, 0.00,60.00,Wednesday
135,267384536.57328695
3420,267384536.5732869
3738,42523467.05235595
2,11, 1,11, 0,11, 0.00,60.00,Wednesday
135,261955219.96306944
3420,261955219.9630694
3738,16016565.134606961
2,11, 1,11, 0,12, 0.00,60.00,Wednesday
135,270714182.10306215
3420,270714182.10306215
3738,26181831.366048783
2,11, 1,11, 0,13, 0.00,60.00,Wednesday
135,273513403.404952
3420,273513403.404952
3738,37183113.84012365
2,11, 1,11, 0,14, 0.00,60.00,Wednesday
135,274007494.87287647
3420,274007494.87287647
3738,28205858.86047299
2,11, 1,11, 0,15, 0.00,60.00,Wednesday
135,259987115.9208099
3420,259987115.9208098
3738,20141557.644173317
2,11, 1,11, 0,16, 0.00,60.00,Wednesday
135,260286832.10497817
3420,260286832.1049781
3738,23113472.311067842
2,11, 1,11, 0,17, 0.00,60.00,Wednesday
135,277397789.6622859
3420,277397789.6622859
3738,51653118.108397394
2,11, 1,11, 0,18, 0.00,60.00,Wednesday
135,241897895.65758795
3420,241897895.65758795
3738,56488533.16544749
2,11, 1,11, 0,19, 0.00,60.00,Wednesday
135,131649279.8706688
3420,131649279.8706688
3738,82152658.92585883
2,11, 1,11, 0,20, 0.00,60.00,Wednesday
135,113638670.29063931
3420,113638670.29063931
3738,91589500.14927435
2,11, 1,11, 0,21, 0.00,60.00,Wednesday
135,104339611.44291785
3420,104339611.44291787
3738,91218173.2001856
2,11, 1,11, 0,22, 0.00,60.00,Wednesday
135,101865347.43863434
3420,101865347.43863435
3738,102021421.38196784
2,11, 1,11, 0,23, 0.00,60.00,Wednesday
135,77772390.65670998
3420,77772390.65670998
3738,6791184.0
2,11, 1,11, 0,24, 0.00,60.00,Wednesday
135,72442274.24247962
3420,72442274.24247962
3738,6791184.0
2,12, 1,12, 0, 1, 0.00,60.00,Thursday
135,57996196.7332391
3420,57996196.7332391
3738,6791184.0
2,12, 1,12, 0, 2, 0.00,60.00,Thursday
135,57609860.1137362
3420,57609860.1137362
3738,6791184.0
2,12, 1,12, 0, 3, 0.00,60.00,Thursday
135,57609860.1137362
3420,57609860.1137362
3738,6791184.0
2,12, 1,12, 0, 4, 0.00,60.00,Thursday
135,57609860.1137362
3420,57609860.1137362
3738,6791184.0
2,12, 1,12, 0, 5, 0.00,60.00,Thursday
135,57609860.1137362
3420,57609860.1137362
3738,6791184.0
2,12, 1,12, 0, 6, 0.00,60.00,Thursday
135,57609860.1137362
3420,57609860.1137362
3738,6791184.0
2,12, 1,12, 0, 7, 0.00,60.00,Thursday
135,109406772.69521093
3420,109406772.69521095
3738,6791184.0
2,12, 1,12, 0, 8, 0.00,60.00,Thursday
135,189579151.6788048
3420,189579151.6788048
3738,131520033.78274556
2,12, 1,12, 0, 9, 0.00,60.00,Thursday
135,310556986.53365886
3420,310556986.53365886
3738,85724677.87124568
2,12, 1,12, 0,10, 0.00,60.00,Thursday
135,269381458.0331082
3420,269381458.0331082
3738,73316964.37191828
2,12, 1,12, 0,11, 0.00,60.00,Thursday
135,263242779.37872785
3420,263242779.37872782
3738,56747704.57943113
2,12, 1,12, 0,12, 0.00,60.00,Thursday
135,275379071.0918496
3420,275379071.0918496
3738,50186115.30236109
2,12, 1,12, 0,13, 0.00,60.00,Thursday
135,292297563.3650926
3420,292297563.36509246
3738,42441174.095667586
2,12, 1,12, 0,14, 0.00,60.00,Thursday
135,286168262.6265718
3420,286168262.6265717
3738,37551733.94022361
2,12, 1,12, 0,15, 0.00,60.00,Thursday
135,270620798.95690596
3420,270620798.9569059
3738,19095074.897375394
2,12, 1,12, 0,16, 0.00,60.00,Thursday
135,270450643.32600826
3420,270450643.32600826
3738,26978068.073279772
2,12, 1,12, 0,17, 0.00,60.00,Thursday
135,289035522.8028203
3420,289035522.8028203
3738,34407071.43295688
2,12, 1,12, 0,18, 0.00,60.00,Thursday
135,250866996.97266698
3420,250866996.97266698
3738,49684060.69502213
2,12, 1,12, 0,19, 0.00,60.00,Thursday
135,132560986.82401183
3420,132560986.82401183
3738,73607492.24330312
2,12, 1,12, 0,20, 0.00,60.00,Thursday
135,113569604.38930234
3420,113569604.38930234
3738,71386748.83886033
2,12, 1,12, 0,21, 0.00,60.00,Thursday
135,103859846.78192861
3420,103859846.78192861
3738,75103322.73254365
2,12, 1,12, 0,22, 0.00,60.00,Thursday
135,100945584.96343371
3420,100945584.96343371
3738,77679913.53486288
2,12, 1,12, 0,23, 0.00,60.00,Thursday
135,77772390.65670998
3420,77772390.65670998
3738,6791184.0
2,12, 1,12, 0,24, 0.00,60.00,Thursday
135,72442274.24247962
3420,72442274.24247962
3738,6791184.0
2,13, 1,13, 0, 1, 0.00,60.00,Friday
135,57996196.7332391
3420,57996196.7332391
3738,6791184.0