Program Version,EnergyPlus, Version 9.6.0-f420c06a69, YMD=2022.07.06 16:25
1,5,Environment Title[],Latitude[deg],Longitude[deg],Time Zone[],Elevation[m]
2,8,Day of Simulation[],Month[],Day of Month[],DST Indicator[1=yes 0=no],Hour[],StartMinute[],EndMinute[],DayType
3,5,Cumulative Day of Simulation[],Month[],Day of Month[],DST Indicator[1=yes 0=no],DayType  ! When Daily Meters Requested
4,2,Cumulative Days of Simulation[],Month[]  ! When Monthly Meters Requested
5,1,Cumulative Days of Simulation[] ! When Run Period Meters Requested
6,1,Calendar Year of Simulation[] ! When Annual Meters Requested
135,1,Electricity:Facility [J] !Hourly
3420,1,ElectricityNet:Facility [J] !Hourly
3738,1,NaturalGas:Facility [J] !Hourly
End of Data Dictionary
1,RUNPERIOD 1,  35.04,-106.62,  -7.00,1619.00
2,1, 1, 1, 0, 1, 0.00,60.00,Holiday
135,46359074.93593144
3420,46359074.93593143
3738,6791184.0
2,1, 1, 1, 0, 2, 0.00,60.00,Holiday
135,46359235.70955593
3420,46359235.709555924
3738,6791184.0
2,1, 1, 1, 0, 3, 0.00,60.00,Holiday
135,46359235.70955593
3420,46359235.709555924
3738,6791184.0
2,1, 1, 1, 0, 4, 0.00,60.00,Holiday
135,46359235.70955593
3420,46359235.709555924
3738,6791184.0
2,1, 1, 1, 0, 5, 0.00,60.00,Holiday
135,46359235.70955593
3420,46359235.709555924
3738,6791184.0
2,1, 1, 1, 0, 6, 0.00,60.00,Holiday
135,46359235.70955593
3420,46359235.709555924
3738,6791184.0
2,1, 1, 1, 0, 7, 0.00,60.00,Holiday
135,66032185.73006148
3420,66032185.73006148
3738,6791184.0
2,1, 1, 1, 0, 8, 0.00,60.00,Holiday
135,50074623.774579875
3420,50074623.774579875
3738,6791184.0
2,1, 1, 1, 0, 9, 0.00,60.00,Holiday
135,46351708.9331394
3420,46351708.9331394
3738,6791184.0
2,1, 1, 1, 0,10, 0.00,60.00,Holiday
135,46288813.17904917
3420,46288813.179049164
3738,6791184.0
2,1, 1, 1, 0,11, 0.00,60.00,Holiday
135,50556028.58634514
3420,50556028.58634514
3738,6791184.0
2,1, 1, 1, 0,12, 0.00,60.00,Holiday
135,53620061.07971074
3420,53620061.07971075
3738,6791184.0
2,1, 1, 1, 0,13, 0.00,60.00,Holiday
135,54251377.4482968
3420,54251377.44829681
3738,6791184.0
2,1, 1, 1, 0,14, 0.00,60.00,Holiday
135,58744815.664830714
3420,58744815.66483073
3738,6791184.0
2,1, 1, 1, 0,15, 0.00,60.00,Holiday
135,64652365.25448359
3420,64652365.25448359
3738,6791184.0
2,1, 1, 1, 0,16, 0.00,60.00,Holiday
135,62671968.53224909
3420,62671968.53224909
3738,6791184.0
2,1, 1, 1, 0,17, 0.00,60.00,Holiday
135,54610940.42094375
3420,54610940.42094375
3738,6791184.0
2,1, 1, 1, 0,18, 0.00,60.00,Holiday
135,66905826.86107348
3420,66905826.86107348
3738,6791184.0
2,1, 1, 1, 0,19, 0.00,60.00,Holiday
135,57105773.81922845
3420,57105773.81922844
3738,6791184.0
2,1, 1, 1, 0,20, 0.00,60.00,Holiday
135,48904615.70955593
3420,48904615.70955593
3738,6791184.0
2,1, 1, 1, 0,21, 0.00,60.00,Holiday
135,48904615.70955593
3420,48904615.70955593
3738,6791184.0
2,1, 1, 1, 0,22, 0.00,60.00,Holiday
135,48904615.70955593
3420,48904615.70955593
3738,6791184.0
2,1, 1, 1, 0,23, 0.00,60.00,Holiday
135,48904615.70955593
3420,48904615.70955593
3738,6791184.0
2,1, 1, 1, 0,24, 0.00,60.00,Holiday
135,48904615.70955593
3420,48904615.70955593
3738,6791184.0
2,2, 1, 2, 0, 1, 0.00,60.00,Monday
135,57609860.1137362
3420,57609860.1137362
3738,6791184.0
2,2, 1, 2, 0, 2, 0.00,60.00,Monday
135,57609860.1137362
3420,57609860.1137362
3738,6791184.0
2,2, 1, 2, 0, 3, 0.00,60.00,Monday
135,57609860.1137362
3420,57609860.1137362
3738,6791184.0
2,2, 1, 2, 0, 4, 0.00,60.00,Monday
135,57609860.1137362
3420,57609860.1137362
3738,6791184.0
2,2, 1, 2, 0, 5, 0.00,60.00,Monday
135,57609860.1137362
3420,57609860.1137362
3738,6791184.0
2,2, 1, 2, 0, 6, 0.00,60.00,Monday
135,57609860.1137362
3420,57609860.1137362
3738,6791184.0
2,2, 1, 2, 0, 7, 0.00,60.00,Monday
135,134878218.9732619
3420,134878218.97326186
3738,6791184.0
2,2, 1, 2, 0, 8, 0.00,60.00,Monday
135,224447349.34681612
3420,224447349.34681612
3738,144051788.3317502
2,2, 1, 2, 0, 9, 0.00,60.00,Monday
135,310113173.5226268
3420,310113173.52262676
3738,88876839.65152809
2,2, 1, 2, 0,10, 0.00,60.00,Monday
135,271365063.6523837
3420,271365063.6523836
3738,60265923.85270449
2,2, 1, 2, 0,11, 0.00,60.00,Monday
135,268042805.41555253
3420,268042805.41555253
3738,22324186.92765486
2,2, 1, 2, 0,12, 0.00,60.00,Monday
135,288256589.4717232
3420,288256589.4717232
3738,20876794.54329522
2,2, 1, 2, 0,13, 0.00,60.00,Monday
135,289626908.83261126
3420,289626908.83261126
3738,31334423.78333511
2,2, 1, 2, 0,14, 0.00,60.00,Monday
135,304560312.7598077
3420,304560312.75980777
3738,26165958.14784857
2,2, 1, 2, 0,15, 0.00,60.00,Monday
135,297207055.59561163
3420,297207055.5956117
3738,16649506.089210246
2,2, 1, 2, 0,16, 0.00,60.00,Monday
135,301765850.1485542
3420,301765850.1485542
3738,19089949.697671723
2,2, 1, 2, 0,17, 0.00,60.00,Monday
135,300883689.7626623
3420,300883689.7626623
3738,20696611.81849547
2,2, 1, 2, 0,18, 0.00,60.00,Monday
135,237763786.45298475
3420,237763786.45298478
3738,22828722.127478585
2,2, 1, 2, 0,19, 0.00,60.00,Monday
135,131185250.1779861
3420,131185250.1779861
3738,54000351.72755138
2,2, 1, 2, 0,20, 0.00,60.00,Monday
135,115788227.31176195
3420,115788227.31176195
3738,68630236.21559957
2,2, 1, 2, 0,21, 0.00,60.00,Monday
135,107180701.07736793
3420,107180701.07736793
3738,80740475.22169581
2,2, 1, 2, 0,22, 0.00,60.00,Monday
135,104935694.04120313
3420,104935694.04120316
3738,82360406.46165311
2,2, 1, 2, 0,23, 0.00,60.00,Monday
135,77772390.65670998
3420,77772390.65670998
3738,6791184.0
2,2, 1, 2, 0,24, 0.00,60.00,Monday
135,72442274.24247962
3420,72442274.24247962
3738,6791184.0
2,3, 1, 3, 0, 1, 0.00,60.00,Tuesday
135,57996196.7332391
3420,57996196.7332391
3738,6791184.0
2,3, 1, 3, 0, 2, 0.00,60.00,Tuesday
135,57609860.1137362
3420,57609860.1137362
3738,6791184.0
2,3, 1, 3, 0, 3, 0.00,60.00,Tuesday
135,57609860.1137362
3420,57609860.1137362
3738,6791184.0
2,3, 1, 3, 0, 4, 0.00,60.00,Tuesday
135,57609860.1137362
3420,57609860.1137362
3738,6791184.0
2,3, 1, 3, 0, 5, 0.00,60.00,Tuesday
135,57609860.1137362
3420,57609860.1137362
3738,6791184.0
2,3, 1, 3, 0, 6, 0.00,60.00,Tuesday
135,57609860.1137362
3420,57609860.1137362
3738,6791184.0
2,3, 1, 3, 0, 7, 0.00,60.00,Tuesday
135,110246891.9321736
3420,110246891.9321736
3738,6791184.0
2,3, 1, 3, 0, 8, 0.00,60.00,Tuesday
135,189787777.19002396
3420,189787777.19002393
3738,127893569.43827754
2,3, 1, 3, 0, 9, 0.00,60.00,Tuesday
135,311735474.6462774
3420,311735474.64627737
3738,74048611.90492582
2,3, 1, 3, 0,10, 0.00,60.00,Tuesday
135,277285498.1859546
3420,277285498.1859546
3738,33473696.454957783
2,3, 1, 3, 0,11, 0.00,60.00,Tuesday
135,276669119.4453627
3420,276669119.44536257
3738,11005409.7709702
2,3, 1, 3, 0,12, 0.00,60.00,Tuesday
135,294510040.65947235
3420,294510040.65947235
3738,23274910.85150368
2,3, 1, 3, 0,13, 0.00,60.00,Tuesday
135,296008760.87337774
3420,296008760.87337774
3738,31313196.53816751
2,3, 1, 3, 0,14, 0.00,60.00,Tuesday
135,312459596.2197046
3420,312459596.2197046
3738,26179341.570204668
2,3, 1, 3, 0,15, 0.00,60.00,Tuesday
135,300132587.72396576
3420,300132587.72396576
3738,20134709.813017763
2,3, 1, 3, 0,16, 0.00,60.00,Tuesday
135,303905456.6083193
3420,303905456.6083192
3738,15642458.513267582
2,3, 1, 3, 0,17, 0.00,60.00,Tuesday
135,306143708.642809
3420,306143708.6428089
3738,20958292.106283188
2,3, 1, 3, 0,18, 0.00,60.00,Tuesday
135,241887659.15678734
3420,241887659.15678728
3738,17408500.555825397
2,3, 1, 3, 0,19, 0.00,60.00,Tuesday
135,131936317.85543132
3420,131936317.85543132
3738,31714708.765812345
2,3, 1, 3, 0,20, 0.00,60.00,Tuesday
135,113569604.38930234
3420,113569604.38930234
3738,51650092.05562477
2,3, 1, 3, 0,21, 0.00,60.00,Tuesday
135,102910895.06207252
3420,102910895.06207252
3738,60710470.68437332
2,3, 1, 3, 0,22, 0.00,60.00,Tuesday
135,99700727.8095243
3420,99700727.80952433
3738,89792459.07201333
2,3, 1, 3, 0,23, 0.00,60.00,Tuesday
135,77772390.65670998
3420,77772390.65670998
3738,6791184.0
2,3, 1, 3, 0,24, 0.00,60.00,Tuesday
135,72442274.24247962
3420,72442274.24247962
3738,6791184.0
2,4, 1, 4, 0, 1, 0.00,60.00,Wednesday
135,57996196.7332391
3420,57996196.7332391
3738,6791184.0
2,4, 1, 4, 0, 2, 0.00,60.00,Wednesday
135,57609860.1137362
3420,57609860.1137362
3738,6791184.0
2,4, 1, 4, 0, 3, 0.00,60.00,Wednesday
135,57609860.1137362
3420,57609860.1137362
3738,6791184.0
2,4, 1, 4, 0, 4, 0.00,60.00,Wednesday
135,57609860.1137362
3420,57609860.1137362
3738,6791184.0
2,4, 1, 4, 0, 5, 0.00,60.00,Wednesday
135,57609860.1137362
3420,57609860.1137362
3738,6791184.0
2,4, 1, 4, 0, 6, 0.00,60.00,Wednesday
135,57609860.1137362
3420,57609860.1137362
3738,6791184.0
2,4, 1, 4, 0, 7, 0.00,60.00,Wednesday
135,106404852.69745946
3420,106404852.69745946
3738,6791184.0
2,4, 1, 4, 0, 8, 0.00,60.00,Wednesday
135,188565720.77044547
3420,188565720.77044547
3738,148199627.5746022
2,4, 1, 4, 0, 9, 0.00,60.00,Wednesday
135,309354701.0787325
3420,309354701.07873243
3738,87295595.8595211
2,4, 1, 4, 0,10, 0.00,60.00,Wednesday
135,271026351.7007154
3420,271026351.7007154
3738,59254591.49081121
2,4, 1, 4, 0,11, 0.00,60.00,Wednesday
135,265318671.5172772
3420,265318671.51727718
3738,39948447.48624557
2,4, 1, 4, 0,12, 0.00,60.00,Wednesday
135,279645244.1066742
3420,279645244.1066742
3738,25541763.37515947
2,4, 1, 4, 0,13, 0.00,60.00,Wednesday
135,285036500.36897314
3420,285036500.36897314
3738,31353602.7696282
2,4, 1, 4, 0,14, 0.00,60.00,Wednesday
135,290685247.22720414
3420,290685247.2272042
3738,26188331.40128117
2,4, 1, 4, 0,15, 0.00,60.00,Wednesday
135,275869938.016961
3420,275869938.016961
3738,20161876.077216543
2,4, 1, 4, 0,16, 0.00,60.00,Wednesday
135,275561594.01921284
3420,275561594.01921284
3738,15652007.014608864
2,4, 1, 4, 0,17, 0.00,60.00,Wednesday
135,295050112.0482503
3420,295050112.0482503
3738,25318932.60453754
2,4, 1, 4, 0,18, 0.00,60.00,Wednesday
135,250937232.52106398
3420,250937232.521064
3738,18172635.687563766
2,4, 1, 4, 0,19, 0.00,60.00,Wednesday
135,131963474.08535361
3420,131963474.08535364
3738,34092719.66975884
2,4, 1, 4, 0,20, 0.00,60.00,Wednesday
135,113569604.38930234
3420,113569604.38930234
3738,48641009.18389044
2,4, 1, 4, 0,21, 0.00,60.00,Wednesday
135,102910895.06207252
3420,102910895.06207252
3738,62017398.94849987
2,4, 1, 4, 0,22, 0.00,60.00,Wednesday
135,98643202.27409184
3420,98643202.27409185
3738,73472639.48549943
2,4, 1, 4, 0,23, 0.00,60.00,Wednesday
135,77772390.65670998
3420,77772390.65670998
3738,6791184.0
2,4, 1, 4, 0,24, 0.00,60.00,Wednesday
135,72442274.24247962
3420,72442274.24247962
3738,6791184.0
2,5, 1, 5, 0, 1, 0.00,60.00,Thursday
135,57996196.7332391
3420,57996196.7332391
3738,6791184.0
2,5, 1, 5, 0, 2, 0.00,60.00,Thursday
135,57609860.1137362
3420,57609860.1137362
3738,6791184.0
2,5, 1, 5, 0, 3, 0.00,60.00,Thursday
135,57609860.1137362
3420,57609860.1137362
3738,6791184.0
2,5, 1, 5, 0, 4, 0.00,60.00,Thursday
135,57609860.1137362
3420,57609860.1137362
3738,6791184.0
2,5, 1, 5, 0, 5, 0.00,60.00,Thursday
135,57609860.1137362
3420,57609860.1137362
3738,6791184.0
2,5, 1, 5, 0, 6, 0.00,60.00,Thursday
135,57609860.1137362
3420,57609860.1137362
3738,6791184.0
2,5, 1, 5, 0, 7, 0.00,60.00,Thursday
135,98001538.17974657
3420,98001538.17974658
3738,6791184.0
2,5, 1, 5, 0, 8, 0.00,60.00,Thursday
135,173046011.2365476
3420,173046011.23654756
3738,95984532.53304248
2,5, 1, 5, 0, 9, 0.00,60.00,Thursday
135,300936433.2333016
3420,300936433.2333016
3738,47547059.700795956
2,5, 1, 5, 0,10, 0.00,60.00,Thursday
135,267975875.42122036
3420,267975875.42122036
3738,9941387.942617014
2,5, 1, 5, 0,11, 0.00,60.00,Thursday
135,264901787.8012449
3420,264901787.80124485
3738,11332780.041079449
2,5, 1, 5, 0,12, 0.00,60.00,Thursday
135,286464562.3116948
3420,286464562.3116948
3738,20890679.7449193
2,5, 1, 5, 0,13, 0.00,60.00,Thursday
135,296788517.12590337
3420,296788517.1259033
3738,31320940.669169303
2,5, 1, 5, 0,14, 0.00,60.00,Thursday
135,319822314.1233592
3420,319822314.1233592
3738,26187408.10636591
2,5, 1, 5, 0,15, 0.00,60.00,Thursday
135,314594258.5022899
3420,314594258.5022899
3738,20204318.374009755
2,5, 1, 5, 0,16, 0.00,60.00,Thursday
135,317591676.476241
3420,317591676.476241
3738,15641707.05618502
2,5, 1, 5, 0,17, 0.00,60.00,Thursday
135,315598440.7353698
3420,315598440.7353698
3738,25321995.17511954
2,5, 1, 5, 0,18, 0.00,60.00,Thursday
135,232968896.37443906
3420,232968896.37443903
3738,11105028.07965279
2,5, 1, 5, 0,19, 0.00,60.00,Thursday
135,130833001.9274026
3420,130833001.92740259
3738,11020184.85230649
2,5, 1, 5, 0,20, 0.00,60.00,Thursday
135,113569604.38930234
3420,113569604.38930234
3738,19653004.13191302
2,5, 1, 5, 0,21, 0.00,60.00,Thursday
135,102910895.06207252
3420,102910895.06207252
3738,30412046.83878383
2,5, 1, 5, 0,22, 0.00,60.00,Thursday
135,98267997.61519502
3420,98267997.61519504
3738,47832153.405674756
2,5, 1, 5, 0,23, 0.00,60.00,Thursday
135,77772390.65670998
3420,77772390.65670998
3738,6791184.0
2,5, 1, 5, 0,24, 0.00,60.00,Thursday
135,72442274.24247962
3420,72442274.24247962
3738,6791184.0
2,6, 1, 6, 0, 1, 0.00,60.00,Friday
135,57996196.7332391
3420,57996196.7332391
3738,6791184.0
2,6, 1, 6, 0, 2, 0.00,60.00,Friday
135,57609860.1137362
3420,57609860.1137362
3738,6791184.0
2,6, 1, 6, 0, 3, 0.00,60.00,Friday
135,57609860.1137362
3420,57609860.1137362
3738,6791184.0
2,6, 1, 6, 0, 4, 0.00,60.00,Friday
135,57609860.1137362
3420,57609860.1137362
3738,6791184.0
2,6, 1, 6, 0, 5, 0.00,60.00,Friday
135,57609860.1137362
3420,57609860.1137362
3738,6791184.0
2,6, 1, 6, 0, 6, 0.00,60.00,Friday
135,57609860.1137362
3420,57609860.1137362
3738,6791184.0
2,6, 1, 6, 0, 7, 0.00,60.00,Friday
135,101761138.82559828
3420,101761138.8255983
3738,6791184.0
2,6, 1, 6, 0, 8, 0.00,60.00,Friday
135,186617335.68119577
3420,186617335.6811958
3738,122339951.00789846
2,6, 1, 6, 0, 9, 0.00,60.00,Friday
135,312029470.1854492
3420,312029470.1854492
3738,86942868.8792727
2,6, 1, 6, 0,10, 0.00,60.00,Friday
135,270095755.6919701
3420,270095755.69197005
3738,79429375.93451983
2,6, 1, 6, 0,11, 0.00,60.00,Friday
135,262871651.39125392
3420,262871651.3912539
3738,68729703.8317558
2,6, 1, 6, 0,12, 0.00,60.00,Friday
135,281153234.85566807
3420,281153234.855668
3738,44835351.36842484
2,6, 1, 6, 0,13, 0.00,60.00,Friday
135,290119135.0879015
3420,290119135.0879014
3738,28450370.162097223
2,6, 1, 6, 0,14, 0.00,60.00,Friday
135,307358149.4348196
3420,307358149.43481964
3738,27016229.78526352
2,6, 1, 6, 0,15, 0.00,60.00,Friday
135,300262206.83128536
3420,300262206.8312853
3738,19416272.65687506
2,6, 1, 6, 0,16, 0.00,60.00,Friday
135,303580168.4425974
3420,303580168.4425973
3738,15650097.828112602
2,6, 1, 6, 0,17, 0.00,60.00,Friday
135,307578141.1777811
3420,307578141.1777811
3738,25324406.193064373
2,6, 1, 6, 0,18, 0.00,60.00,Friday
135,251347498.7701918
3420,251347498.7701918
3738,50639939.608203456
2,6, 1, 6, 0,19, 0.00,60.00,Friday
135,131549566.86606383
3420,131549566.86606385
3738,79014615.91963263
2,6, 1, 6, 0,20, 0.00,60.00,Friday
135,113569604.38930234
3420,113569604.38930234
3738,81833942.34556517
2,6, 1, 6, 0,21, 0.00,60.00,Friday
135,104225098.63318042
3420,104225098.63318044
3738,99314890.25456563
2,6, 1, 6, 0,22, 0.00,60.00,Friday
135,101039120.66420706
3420,101039120.66420707
3738,98198775.79641841
2,6, 1, 6, 0,23, 0.00,60.00,Friday
135,77772390.65670998
3420,77772390.65670998
3738,6791184.0
2,6, 1, 6, 0,24, 0.00,60.00,Friday
135,72442274.24247962
3420,72442274.24247962
3738,6791184.0
2,7, 1, 7, 0, 1, 0.00,60.00,Saturday
135,46745513.81922844
3420,46745513.81922843
3738,6791184.0
2,7, 1, 7, 0, 2, 0.00,60.00,Saturday
135,46359235.70955593
3420,46359235.709555924
3738,6791184.0
2,7, 1, 7, 0, 3, 0.00,60.00,Saturday
135,46359235.70955593
3420,46359235.709555924
3738,6791184.0
2,7, 1, 7, 0, 4, 0.00,60.00,Saturday
135,46359235.70955593
3420,46359235.709555924
3738,6791184.0
2,7, 1, 7, 0, 5, 0.00,60.00,Saturday
135,46359235.70955593
3420,46359235.709555924
3738,6791184.0
2,7, 1, 7, 0, 6, 0.00,60.00,Saturday
135,46359235.70955593
3420,46359235.709555924
3738,6791184.0
2,7, 1, 7, 0, 7, 0.00,60.00,Saturday
135,112418670.27594456
3420,112418670.27594455
3738,6791184.0
2,7, 1, 7, 0, 8, 0.00,60.00,Saturday
135,141773936.91643915
3420,141773936.91643912
3738,133143974.52376789
2,7, 1, 7, 0, 9, 0.00,60.00,Saturday
135,134188766.42449442
3420,134188766.42449439
3738,115675979.41849588
2,7, 1, 7, 0,10, 0.00,60.00,Saturday
135,135800333.59834892
3420,135800333.5983489
3738,102145390.9029454
2,7, 1, 7, 0,11, 0.00,60.00,Saturday
135,128596955.61215128
3420,128596955.6121513
3738,74276444.63028374
2,7, 1, 7, 0,12, 0.00,60.00,Saturday
135,138224583.3792251
3420,138224583.37922508
3738,33902567.14498865
2,7, 1, 7, 0,13, 0.00,60.00,Saturday
135,97651959.76497468
3420,97651959.76497468
3738,21950315.679773852
2,7, 1, 7, 0,14, 0.00,60.00,Saturday
135,86589223.74966772
3420,86589223.74966772
3738,22199477.382947695
2,7, 1, 7, 0,15, 0.00,60.00,Saturday
135,80777988.06353001
3420,80777988.06353001
3738,19703248.725172624
2,7, 1, 7, 0,16, 0.00,60.00,Saturday
135,76233398.28453368
3420,76233398.28453368
3738,27945064.103341363
2,7, 1, 7, 0,17, 0.00,60.00,Saturday
135,79224378.47989854
3420,79224378.47989856
3738,36823903.31955952
2,7, 1, 7, 0,18, 0.00,60.00,Saturday
135,83077160.33306564
3420,83077160.33306564
3738,51759176.81589704
2,7, 1, 7, 0,19, 0.00,60.00,Saturday
135,66276703.53612528
3420,66276703.53612528
3738,6791184.0
2,7, 1, 7, 0,20, 0.00,60.00,Saturday
135,49290893.81922844
3420,49290893.81922844
3738,6791184.0
2,7, 1, 7, 0,21, 0.00,60.00,Saturday
135,48904615.70955593
3420,48904615.70955593
3738,6791184.0
2,7, 1, 7, 0,22, 0.00,60.00,Saturday
135,48904615.70955593
3420,48904615.70955593
3738,6791184.0
2,7, 1, 7, 0,23, 0.00,60.00,Saturday
135,48904615.70955593
3420,48904615.70955593
3738,6791184.0
2,7, 1, 7, 0,24, 0.00,60.00,Saturday
135,48904615.70955593
3420,48904615.70955593
3738,6791184.0
2,8, 1, 8, 0, 1, 0.00,60.00,Sunday
135,46359235.70955593
3420,46359235.709555924
3738,6791184.0
2,8, 1, 8, 0, 2, 0.00,60.00,Sunday
135,46359235.70955593
3420,46359235.709555924
3738,6791184.0
2,8, 1, 8, 0, 3, 0.00,60.00,Sunday
135,46359235.70955593
3420,46359235.709555924
3738,6791184.0
2,8, 1, 8, 0, 4, 0.00,60.00,Sunday
135,46359235.70955593
3420,46359235.709555924
3738,6791184.0
2,8, 1, 8, 0, 5, 0.00,60.00,Sunday
135,46359235.70955593
3420,46359235.709555924
3738,6791184.0
2,8, 1, 8, 0, 6, 0.00,60.00,Sunday
135,46359235.70955593
3420,46359235.709555924
3738,6791184.0
2,8, 1, 8, 0, 7, 0.00,60.00,Sunday
135,66032185.73006148
3420,66032185.73006148
3738,6791184.0
2,8, 1, 8, 0, 8, 0.00,60.00,Sunday
135,53323580.330645084
3420,53323580.330645084
3738,6791184.0
2,8, 1, 8, 0, 9, 0.00,60.00,Sunday
135,46344166.24829911
3420,46344166.24829911
3738,6791184.0
2,8, 1, 8, 0,10, 0.00,60.00,Sunday
135,46288812.51597283
3420,46288812.51597283
3738,6791184.0
2,8, 1, 8, 0,11, 0.00,60.00,Sunday
135,47483735.17309559
3420,47483735.173095584
3738,6791184.0
2,8, 1, 8, 0,12, 0.00,60.00,Sunday
135,51177976.93334925
3420,51177976.93334926
3738,6791184.0
2,8, 1, 8, 0,13, 0.00,60.00,Sunday
135,54213038.55758961
3420,54213038.557589635
3738,6791184.0
2,8, 1, 8, 0,14, 0.00,60.00,Sunday
135,53710983.39928928
3420,53710983.39928929
3738,6791184.0
2,8, 1, 8, 0,15, 0.00,60.00,Sunday
135,54239071.24996224
3420,54239071.24996224
3738,6791184.0
2,8, 1, 8, 0,16, 0.00,60.00,Sunday
135,53526759.41740459
3420,53526759.4174046
3738,6791184.0
2,8, 1, 8, 0,17, 0.00,60.00,Sunday
135,49371975.328517206
3420,49371975.32851721
3738,6791184.0
2,8, 1, 8, 0,18, 0.00,60.00,Sunday
135,66276671.30593526
3420,66276671.30593526
3738,6791184.0
2,8, 1, 8, 0,19, 0.00,60.00,Sunday
135,57105773.81922845
3420,57105773.81922844
3738,6791184.0
2,8, 1, 8, 0,20, 0.00,60.00,Sunday
135,48904615.70955593
3420,48904615.70955593
3738,6791184.0
2,8, 1, 8, 0,21, 0.00,60.00,Sunday
135,48904615.70955593
3420,48904615.70955593
3738,6791184.0
2,8, 1, 8, 0,22, 0.00,60.00,Sunday
135,48904615.70955593
3420,48904615.70955593
3738,6791184.0
2,8, 1, 8, 0,23, 0.00,60.00,Sunday
135,48904615.70955593
3420,48904615.70955593
3738,6791184.0
2,8, 1, 8, 0,24, 0.00,60.00,Sunday
135,48904615.70955593
3420,48904615.70955593
3738,6791184.0
2,9, 1, 9, 0, 1, 0.00,60.00,Monday
135,57609860.1137362
3420,57609860.1137362
3738,6791184.0
2,9, 1, 9, 0, 2, 0.00,60.00,Monday
135,57609860.1137362
3420,57609860.1137362
3738,6791184.0
2,9, 1, 9, 0, 3, 0.00,60.00,Monday
135,57609860.1137362
3420,57609860.1137362
3738,6791184.0
2,9, 1, 9, 0, 4, 0.00,60.00,Monday
135,57609860.1137362
3420,57609860.1137362
3738,6791184.0
2,9, 1, 9, 0, 5, 0.00,60.00,Monday
135,57609860.1137362
3420,57609860.1137362
3738,6791184.0
2,9, 1, 9, 0, 6, 0.00,60.00,Monday
135,57609860.1137362
3420,57609860.1137362
3738,6791184.0
2,9, 1, 9, 0, 7, 0.00,60.00,Monday
135,130107021.57820784
3420,130107021.57820782
3738,6791184.0
2,9, 1, 9, 0, 8, 0.00,60.00,Monday
135,218874380.6235384
3420,218874380.6235384
3738,134316403.78037852
2,9, 1, 9, 0, 9, 0.00,60.00,Monday
135,314614173.47904515
3420,314614173.4790451
3738,82020832.13595276
2,9, 1, 9, 0,10, 0.00,60.00,Monday
135,274685361.4303217
3420,274685361.43032163
3738,56343213.78300003
2,9, 1, 9, 0,11, 0.00,60.00,Monday
135,270362155.4748229
3420,270362155.4748229
3738,20863181.350555763
2,9, 1, 9, 0,12, 0.00,60.00,Monday
135,288401796.7816476
3420,288401796.78164756
3738,20903861.633305304
2,9, 1, 9, 0,13, 0.00,60.00,Monday
135,291239645.36062217
3420,291239645.36062217
3738,31355574.698668566
2,9, 1, 9, 0,14, 0.00,60.00,Monday
135,307444017.8548968
3420,307444017.8548968
3738,26214925.26648407
2,9, 1, 9, 0,15, 0.00,60.00,Monday
135,301864980.5628433
3420,301864980.56284326
3738,20131557.061074454
2,9, 1, 9, 0,16, 0.00,60.00,Monday
135,310709933.77884495
3420,310709933.7788449
3738,15659351.364163516
2,9, 1, 9, 0,17, 0.00,60.00,Monday
135,321297383.6935083
3420,321297383.6935082
3738,25336256.250398904
2,9, 1, 9, 0,18, 0.00,60.00,Monday
135,242193625.85145634
3420,242193625.85145634
3738,12455236.484737892
2,9, 1, 9, 0,19, 0.00,60.00,Monday
135,131850155.39265078
3420,131850155.39265081
3738,31422935.827567965
2,9, 1, 9, 0,20, 0.00,60.00,Monday
135,113635559.6620477
3420,113635559.6620477
3738,40588144.49294051
2,9, 1, 9, 0,21, 0.00,60.00,Monday
135,104053304.38693762
3420,104053304.38693762
3738,30425889.122324895
2,9, 1, 9, 0,22, 0.00,60.00,Monday
135,100972148.70583352
3420,100972148.70583355
3738,37589471.82030176
2,9, 1, 9, 0,23, 0.00,60.00,Monday
135,77772390.65670998
3420,77772390.65670998
3738,6791184.0
2,9, 1, 9, 0,24, 0.00,60.00,Monday
135,72442274.24247962
3420,72442274.24247962
3738,6791184.0
2,10, 1,10, 0, 1, 0.00,60.00,Tuesday
135,57996196.7332391
3420,57996196.7332391
3738,6791184.0
2,10, 1,10, 0, 2, 0.00,60.00,Tuesday
135,57609860.1137362
3420,57609860.1137362
3738,6791184.0
2,10, 1,10, 0, 3, 0.00,60.00,Tuesday
135,57609860.1137362
3420,57609860.1137362
3738,6791184.0
2,10, 1,10, 0, 4, 0.00,60.00,Tuesday
135,57609860.1137362
3420,57609860.1137362
3738,6791184.0
2,10, 1,10, 0, 5, 0.00,60.00,Tuesday
135,57609860.1137362
3420,57609860.1137362
3738,6791184.0
2,10, 1,10, 0, 6, 0.00,60.00,Tuesday
135,57609860.1137362
3420,57609860.1137362
3738,6791184.0
2,10, 1,10, 0, 7, 0.00,60.00,Tuesday
135,112588590.54212192
3420,112588590.54212192
3738,6791184.0
2,10, 1,10, 0, 8, 0.00,60.00,Tuesday
135,194190930.13984478
3420,194190930.13984478
3738,148682192.10753918
2,10, 1,10, 0, 9, 0.00,60.00,Tuesday
135,308474885.2728943
3420,308474885.27289426
3738,95489342.84180585
2,10, 1,10, 0,10, 0.00,60.00,Tuesday
135,269301049.281484
3420,269301049.281484
3738,74206978.61150232
2,10, 1,10, 0,11, 0.00,60.00,Tuesday
135,261807796.2429732
3420,261807796.24297315
3738,64027937.54120363
2,10, 1,10, 0,12, 0.00,60.00,Tuesday
135,271601970.4206707
3420,271601970.4206707
3738,74760377.04546008
2,10, 1,10, 0,13, 0.00,60.00,Tuesday
135,290229371.22967654
3420,290229371.22967654
3738,56203046.337142594
2,10, 1,10, 0,14, 0.00,60.00,Tuesday
135,287667504.256351
3420,287667504.25635093
3738,35281101.945681006
2,10, 1,10, 0,15, 0.00,60.00,Tuesday
135,279799225.0808017
3420,279799225.0808017
3738,16023762.021758191
2,10, 1,10, 0,16, 0.00,60.00,Tuesday
135,281923263.82235074
3420,281923263.8223507
3738,17503926.1656991
2,10, 1,10, 0,17, 0.00,60.00,Tuesday
135,293925041.185104
3420,293925041.185104
3738,23409147.351323046
2,10, 1,10, 0,18, 0.00,60.00,Tuesday
135,250394256.39062017
3420,250394256.39062017
3738,38243185.99822807
2,10, 1,10, 0,19, 0.00,60.00,Tuesday
135,130967090.39302927
3420,130967090.39302927
3738,77973487.18918782
2,10, 1,10, 0,20, 0.00,60.00,Tuesday
135,113815194.32184409
3420,113815194.32184409
3738,81891284.49875768
2,10, 1,10, 0,21, 0.00,60.00,Tuesday
135,104578977.16376035
3420,104578977.16376036
3738,91366249.49318165
2,10, 1,10, 0,22, 0.00,60.00,Tuesday
135,103466310.37441091
3420,103466310.37441093
3738,104088488.54279885
2,10, 1,10, 0,23, 0.00,60.00,Tuesday
135,77772390.65670998
3420,77772390.65670998
3738,6791184.0
2,10, 1,10, 0,24, 0.00,60.00,Tuesday
135,72442274.24247962
3420,72442274.24247962
3738,6791184.0
2,11, 1,11, 0, 1, 0.00,60.00,Wednesday
135,57996196.7332391
3420,57996196.7332391
3738,6791184.0
2,11, 1,11, 0, 2, 0.00,60.00,Wednesday
135,57609860.1137362
3420,57609860.1137362
3738,6791184.0
2,11, 1,11, 0, 3, 0.00,60.00,Wednesday
135,57609860.1137362
3420,57609860.1137362
3738,6791184.0
2,11, 1,11, 0, 4, 0.00,60.00,Wednesday
135,57609860.1137362
3420,57609860.1137362
3738,6791184.0
2,11, 1,11, 0, 5, 0.00,60.00,Wednesday
135,57609860.1137362
3420,57609860.1137362
3738,6791184.0
2,11, 1,11, 0, 6, 0.00,60.00,Wednesday
135,57609860.1137362
3420,57609860.1137362
3738,6791184.0
2,11, 1,11, 0, 7, 0.00,60.00,Wednesday
135,108097817.95716518
3420,108097817.95716518
3738,6791184.0
2,11, 1,11, 0, 8, 0.00,60.00,Wednesday
135,188320567.31192467
3420,188320567.3119247
3738,90865385.42955095
2,11, 1,11, 0, 9, 0.00,60.00,Wednesday
135,304202695.7505166
3420,304202695.7505166
3738,62207968.846712604
2,11, 1,11, 0,10, 0.00,60.00,Wednesday
135,267304917.6592645
3420,267304917.65926448
3738,48027112.100296594
2,11, 1,11, 0,11, 0.00,60.00,Wednesday
135,261554364.83541262
3420,261554364.83541262
3738,20269850.63574503
2,11, 1,11, 0,12, 0.00,60.00,Wednesday
135,270196961.72268206
3420,270196961.722682
3738,29627010.200579576
2,11, 1,11, 0,13, 0.00,60.00,Wednesday
135,275026397.5034721
3420,275026397.5034721
3738,42381652.68236841
2,11, 1,11, 0,14, 0.00,60.00,Wednesday
135,273871142.8162108
3420,273871142.8162108
3738,30791513.94738376
2,11, 1,11, 0,15, 0.00,60.00,Wednesday
135,259790168.67036745
3420,259790168.67036745
3738,22637457.826855067
2,11, 1,11, 0,16, 0.00,60.00,Wednesday
135,260133511.06314564
3420,260133511.06314558
3738,28307971.841747846
2,11, 1,11, 0,17, 0.00,60.00,Wednesday
135,277248254.2174799
3420,277248254.2174798
3738,56803879.665240526
2,11, 1,11, 0,18, 0.00,60.00,Wednesday
135,241970054.51237655
3420,241970054.51237655
3738,60703139.334130704
2,11, 1,11, 0,19, 0.00,60.00,Wednesday
135,131770255.65477112
3420,131770255.65477112
3738,89075359.74761467
2,11, 1,11, 0,20, 0.00,60.00,Wednesday
135,113997140.1143689
3420,113997140.11436889
3738,98130814.3259329
2,11, 1,11, 0,21, 0.00,60.00,Wednesday
135,105315780.9547668
3420,105315780.95476681
3738,97677282.13944224
2,11, 1,11, 0,22, 0.00,60.00,Wednesday
135,103307456.27708188
3420,103307456.2770819
3738,108263534.00380674
2,11, 1,11, 0,23, 0.00,60.00,Wednesday
135,77772390.65670998
3420,77772390.65670998
3738,6791184.0
2,11, 1,11, 0,24, 0.00,60.00,Wednesday
135,72442274.24247962
3420,72442274.24247962
3738,6791184.0
2,12, 1,12, 0, 1, 0.00,60.00,Thursday
135,57996196.7332391
3420,57996196.7332391
3738,6791184.0
2,12, 1,12, 0, 2, 0.00,60.00,Thursday
135,57609860.1137362
3420,57609860.1137362
3738,6791184.0
2,12, 1,12, 0, 3, 0.00,60.00,Thursday
135,57609860.1137362
3420,57609860.1137362
3738,6791184.0
2,12, 1,12, 0, 4, 0.00,60.00,Thursday
135,57609860.1137362
3420,57609860.1137362
3738,6791184.0
2,12, 1,12, 0, 5, 0.00,60.00,Thursday
135,57609860.1137362
3420,57609860.1137362
3738,6791184.0
2,12, 1,12, 0, 6, 0.00,60.00,Thursday
135,57609860.1137362
3420,57609860.1137362
3738,6791184.0
2,12, 1,12, 0, 7, 0.00,60.00,Thursday
135,111855350.95882313
3420,111855350.95882311
3738,6791184.0
2,12, 1,12, 0, 8, 0.00,60.00,Thursday
135,193686162.618157
3420,193686162.618157
3738,138783091.67546538
2,12, 1,12, 0, 9, 0.00,60.00,Thursday
135,310965382.5732982
3420,310965382.5732983
3738,90031078.40137915
2,12, 1,12, 0,10, 0.00,60.00,Thursday
135,268743376.0090053
3420,268743376.0090053
3738,77497177.69799158
2,12, 1,12, 0,11, 0.00,60.00,Thursday
135,262274340.43808243
3420,262274340.43808237
3738,61264178.906878754
2,12, 1,12, 0,12, 0.00,60.00,Thursday
135,274390082.9257677
3420,274390082.92576766
3738,55438170.105057836
2,12, 1,12, 0,13, 0.00,60.00,Thursday
135,293229150.19104266
3420,293229150.19104266
3738,47649845.98592217
2,12, 1,12, 0,14, 0.00,60.00,Thursday
135,285175000.88446254
3420,285175000.88446254
3738,43009751.12016325
2,12, 1,12, 0,15, 0.00,60.00,Thursday
135,269706536.27579457
3420,269706536.27579457
3738,24208683.69670421
2,12, 1,12, 0,16, 0.00,60.00,Thursday
135,269525260.9041674
3420,269525260.9041674
3738,32343288.708121493
2,12, 1,12, 0,17, 0.00,60.00,Thursday
135,288125128.44144267
3420,288125128.4414426
3738,39531998.35068001
2,12, 1,12, 0,18, 0.00,60.00,Thursday
135,250047471.43639478
3420,250047471.4363948
3738,53918533.5007255
2,12, 1,12, 0,19, 0.00,60.00,Thursday
135,133613219.33673726
3420,133613219.33673726
3738,80459192.67507687
2,12, 1,12, 0,20, 0.00,60.00,Thursday
135,113752058.91763315
3420,113752058.91763315
3738,77911126.54029731
2,12, 1,12, 0,21, 0.00,60.00,Thursday
135,104937096.24222098
3420,104937096.24222103
3738,81575745.441362
2,12, 1,12, 0,22, 0.00,60.00,Thursday
135,102155024.70692419
3420,102155024.70692419
3738,83945768.19339167
2,12, 1,12, 0,23, 0.00,60.00,Thursday
135,77772390.65670998
3420,77772390.65670998
3738,6791184.0
2,12, 1,12, 0,24, 0.00,60.00,Thursday
135,72442274.24247962
3420,72442274.24247962
3738,6791184.0
2,13, 1,13, 0, 1, 0.00,60.00,Friday
135,57996196.7332391
3420,57996196.7332391
3738,6791184.0
2,13, 1,13, 0, 2, 0.00,60.00,Friday