Program Version,EnergyPlus, Version 9.6.0-f420c06a69, YMD=2022.07.05 15:10
1,5,Environment Title[],Latitude[deg],Longitude[deg],Time Zone[],Elevation[m]
2,8,Day of Simulation[],Month[],Day of Month[],DST Indicator[1=yes 0=no],Hour[],StartMinute[],EndMinute[],DayType
3,5,Cumulative Day of Simulation[],Month[],Day of Month[],DST Indicator[1=yes 0=no],DayType  ! When Daily Meters Requested
4,2,Cumulative Days of Simulation[],Month[]  ! When Monthly Meters Requested
5,1,Cumulative Days of Simulation[] ! When Run Period Meters Requested
6,1,Calendar Year of Simulation[] ! When Annual Meters Requested
135,1,Electricity:Facility [J] !Hourly
3420,1,ElectricityNet:Facility [J] !Hourly
3738,1,NaturalGas:Facility [J] !Hourly
End of Data Dictionary
1,RUNPERIOD 1,  35.04,-106.62,  -7.00,1619.00
2,1, 1, 1, 0, 1, 0.00,60.00,Holiday
135,46359074.93593144
3420,46359074.93593143
3738,6791184.0
2,1, 1, 1, 0, 2, 0.00,60.00,Holiday
135,46359235.70955593
3420,46359235.709555924
3738,6791184.0
2,1, 1, 1, 0, 3, 0.00,60.00,Holiday
135,46359235.70955593
3420,46359235.709555924
3738,6791184.0
2,1, 1, 1, 0, 4, 0.00,60.00,Holiday
135,46359235.70955593
3420,46359235.709555924
3738,6791184.0
2,1, 1, 1, 0, 5, 0.00,60.00,Holiday
135,46359235.70955593
3420,46359235.709555924
3738,6791184.0
2,1, 1, 1, 0, 6, 0.00,60.00,Holiday
135,46359235.70955593
3420,46359235.709555924
3738,6791184.0
2,1, 1, 1, 0, 7, 0.00,60.00,Holiday
135,66032185.73006148
3420,66032185.73006148
3738,6791184.0
2,1, 1, 1, 0, 8, 0.00,60.00,Holiday
135,50074623.774579875
3420,50074623.774579875
3738,6791184.0
2,1, 1, 1, 0, 9, 0.00,60.00,Holiday
135,46351708.9331394
3420,46351708.9331394
3738,6791184.0
2,1, 1, 1, 0,10, 0.00,60.00,Holiday
135,46288813.17904917
3420,46288813.179049164
3738,6791184.0
2,1, 1, 1, 0,11, 0.00,60.00,Holiday
135,50009342.363199614
3420,50009342.363199614
3738,6791184.0
2,1, 1, 1, 0,12, 0.00,60.00,Holiday
135,53617732.55272024
3420,53617732.55272024
3738,6791184.0
2,1, 1, 1, 0,13, 0.00,60.00,Holiday
135,53634290.22678877
3420,53634290.22678876
3738,6791184.0
2,1, 1, 1, 0,14, 0.00,60.00,Holiday
135,58165555.4574862
3420,58165555.45748622
3738,6791184.0
2,1, 1, 1, 0,15, 0.00,60.00,Holiday
135,62026144.28259239
3420,62026144.28259239
3738,6791184.0
2,1, 1, 1, 0,16, 0.00,60.00,Holiday
135,62605261.924326405
3420,62605261.924326405
3738,6791184.0
2,1, 1, 1, 0,17, 0.00,60.00,Holiday
135,50224406.74534619
3420,50224406.74534619
3738,6791184.0
2,1, 1, 1, 0,18, 0.00,60.00,Holiday
135,67534969.93162571
3420,67534969.93162571
3738,6791184.0
2,1, 1, 1, 0,19, 0.00,60.00,Holiday
135,57105773.81922845
3420,57105773.81922844
3738,6791184.0
2,1, 1, 1, 0,20, 0.00,60.00,Holiday
135,48904615.70955593
3420,48904615.70955593
3738,6791184.0
2,1, 1, 1, 0,21, 0.00,60.00,Holiday
135,48904615.70955593
3420,48904615.70955593
3738,6791184.0
2,1, 1, 1, 0,22, 0.00,60.00,Holiday
135,48904615.70955593
3420,48904615.70955593
3738,6791184.0
2,1, 1, 1, 0,23, 0.00,60.00,Holiday
135,48904615.70955593
3420,48904615.70955593
3738,6791184.0
2,1, 1, 1, 0,24, 0.00,60.00,Holiday
135,48904615.70955593
3420,48904615.70955593
3738,6791184.0
2,2, 1, 2, 0, 1, 0.00,60.00,Monday
135,57609860.1137362
3420,57609860.1137362
3738,6791184.0
2,2, 1, 2, 0, 2, 0.00,60.00,Monday
135,57609860.1137362
3420,57609860.1137362
3738,6791184.0
2,2, 1, 2, 0, 3, 0.00,60.00,Monday
135,57609860.1137362
3420,57609860.1137362
3738,6791184.0
2,2, 1, 2, 0, 4, 0.00,60.00,Monday
135,57609860.1137362
3420,57609860.1137362
3738,6791184.0
2,2, 1, 2, 0, 5, 0.00,60.00,Monday
135,57609860.1137362
3420,57609860.1137362
3738,6791184.0
2,2, 1, 2, 0, 6, 0.00,60.00,Monday
135,57609860.1137362
3420,57609860.1137362
3738,6791184.0
2,2, 1, 2, 0, 7, 0.00,60.00,Monday
135,137296304.18115827
3420,137296304.18115827
3738,6791184.0
2,2, 1, 2, 0, 8, 0.00,60.00,Monday
135,228091710.0508986
3420,228091710.0508986
3738,147577462.2909266
2,2, 1, 2, 0, 9, 0.00,60.00,Monday
135,310928566.17060184
3420,310928566.17060184
3738,92519461.25435951
2,2, 1, 2, 0,10, 0.00,60.00,Monday
135,270881865.80048376
3420,270881865.8004837
3738,64104549.62432517
2,2, 1, 2, 0,11, 0.00,60.00,Monday
135,266825978.4651965
3420,266825978.46519646
3738,26002213.802575894
2,2, 1, 2, 0,12, 0.00,60.00,Monday
135,286238561.40794075
3420,286238561.40794075
3738,20876803.489152778
2,2, 1, 2, 0,13, 0.00,60.00,Monday
135,288356518.2716734
3420,288356518.2716734
3738,31334359.881758783
2,2, 1, 2, 0,14, 0.00,60.00,Monday
135,302975525.7747885
3420,302975525.7747885
3738,26165959.05339483
2,2, 1, 2, 0,15, 0.00,60.00,Monday
135,294972021.31000483
3420,294972021.3100048
3738,16663111.546087924
2,2, 1, 2, 0,16, 0.00,60.00,Monday
135,299410344.29420304
3420,299410344.29420304
3738,19076358.658423744
2,2, 1, 2, 0,17, 0.00,60.00,Monday
135,298389053.9474881
3420,298389053.94748807
3738,20696594.044879485
2,2, 1, 2, 0,18, 0.00,60.00,Monday
135,237624719.45918894
3420,237624719.45918894
3738,24658594.589504886
2,2, 1, 2, 0,19, 0.00,60.00,Monday
135,131458533.53394982
3420,131458533.5339498
3738,57891981.091293484
2,2, 1, 2, 0,20, 0.00,60.00,Monday
135,116433380.00818448
3420,116433380.00818448
3738,72469446.82990465
2,2, 1, 2, 0,21, 0.00,60.00,Monday
135,107904137.86016025
3420,107904137.86016026
3738,84419336.25488532
2,2, 1, 2, 0,22, 0.00,60.00,Monday
135,105912372.76109348
3420,105912372.7610935
3738,86039928.28257765
2,2, 1, 2, 0,23, 0.00,60.00,Monday
135,77772390.65670998
3420,77772390.65670998
3738,6791184.0
2,2, 1, 2, 0,24, 0.00,60.00,Monday
135,72442274.24247962
3420,72442274.24247962
3738,6791184.0
2,3, 1, 3, 0, 1, 0.00,60.00,Tuesday
135,57996196.7332391
3420,57996196.7332391
3738,6791184.0
2,3, 1, 3, 0, 2, 0.00,60.00,Tuesday
135,57609860.1137362
3420,57609860.1137362
3738,6791184.0
2,3, 1, 3, 0, 3, 0.00,60.00,Tuesday
135,57609860.1137362
3420,57609860.1137362
3738,6791184.0
2,3, 1, 3, 0, 4, 0.00,60.00,Tuesday
135,57609860.1137362
3420,57609860.1137362
3738,6791184.0
2,3, 1, 3, 0, 5, 0.00,60.00,Tuesday
135,57609860.1137362
3420,57609860.1137362
3738,6791184.0
2,3, 1, 3, 0, 6, 0.00,60.00,Tuesday
135,57609860.1137362
3420,57609860.1137362
3738,6791184.0
2,3, 1, 3, 0, 7, 0.00,60.00,Tuesday
135,112102812.71491654
3420,112102812.71491656
3738,6791184.0
2,3, 1, 3, 0, 8, 0.00,60.00,Tuesday
135,192408370.01605332
3420,192408370.0160533
3738,131270974.34457883
2,3, 1, 3, 0, 9, 0.00,60.00,Tuesday
135,311377468.3005356
3420,311377468.30053556
3738,77011765.8614414
2,3, 1, 3, 0,10, 0.00,60.00,Tuesday
135,275991645.6933976
3420,275991645.6933976
3738,37032265.1894799
2,3, 1, 3, 0,11, 0.00,60.00,Tuesday
135,275027993.38438785
3420,275027993.38438785
3738,12356874.77290462
2,3, 1, 3, 0,12, 0.00,60.00,Tuesday
135,293027824.6580732
3420,293027824.6580732
3738,23129488.975600578
2,3, 1, 3, 0,13, 0.00,60.00,Tuesday
135,294632280.35879445
3420,294632280.3587944
3738,31312393.36103994
2,3, 1, 3, 0,14, 0.00,60.00,Tuesday
135,311631511.72635615
3420,311631511.72635615
3738,26179763.885574874
2,3, 1, 3, 0,15, 0.00,60.00,Tuesday
135,297469091.1916596
3420,297469091.1916596
3738,20133738.27406303
2,3, 1, 3, 0,16, 0.00,60.00,Tuesday
135,301048099.2336246
3420,301048099.2336245
3738,15641933.428970817
2,3, 1, 3, 0,17, 0.00,60.00,Tuesday
135,304381337.59458923
3420,304381337.5945892
3738,21131219.676558174
2,3, 1, 3, 0,18, 0.00,60.00,Tuesday
135,241555527.0717467
3420,241555527.07174665
3738,18150591.1484727
2,3, 1, 3, 0,19, 0.00,60.00,Tuesday
135,131866343.2953921
3420,131866343.2953921
3738,35254282.540325396
2,3, 1, 3, 0,20, 0.00,60.00,Tuesday
135,113569604.38930234
3420,113569604.38930234
3738,55618240.98964385
2,3, 1, 3, 0,21, 0.00,60.00,Tuesday
135,103004750.63109705
3420,103004750.63109705
3738,64520228.30643645
2,3, 1, 3, 0,22, 0.00,60.00,Tuesday
135,100314428.85157591
3420,100314428.85157594
3738,93974720.59014836
2,3, 1, 3, 0,23, 0.00,60.00,Tuesday
135,77772390.65670998
3420,77772390.65670998
3738,6791184.0
2,3, 1, 3, 0,24, 0.00,60.00,Tuesday
135,72442274.24247962
3420,72442274.24247962
3738,6791184.0
2,4, 1, 4, 0, 1, 0.00,60.00,Wednesday
135,57996196.7332391
3420,57996196.7332391
3738,6791184.0
2,4, 1, 4, 0, 2, 0.00,60.00,Wednesday
135,57609860.1137362
3420,57609860.1137362
3738,6791184.0
2,4, 1, 4, 0, 3, 0.00,60.00,Wednesday
135,57609860.1137362
3420,57609860.1137362
3738,6791184.0
2,4, 1, 4, 0, 4, 0.00,60.00,Wednesday
135,57609860.1137362
3420,57609860.1137362
3738,6791184.0
2,4, 1, 4, 0, 5, 0.00,60.00,Wednesday
135,57609860.1137362
3420,57609860.1137362
3738,6791184.0
2,4, 1, 4, 0, 6, 0.00,60.00,Wednesday
135,57609860.1137362
3420,57609860.1137362
3738,6791184.0
2,4, 1, 4, 0, 7, 0.00,60.00,Wednesday
135,107774072.52574906
3420,107774072.52574907
3738,6791184.0
2,4, 1, 4, 0, 8, 0.00,60.00,Wednesday
135,190977085.51973185
3420,190977085.51973185
3738,152549075.17350966
2,4, 1, 4, 0, 9, 0.00,60.00,Wednesday
135,309442795.73769474
3420,309442795.7376947
3738,90061261.93808414
2,4, 1, 4, 0,10, 0.00,60.00,Wednesday
135,270429451.7583626
3420,270429451.7583626
3738,61809308.47868821
2,4, 1, 4, 0,11, 0.00,60.00,Wednesday
135,264628704.1230281
3420,264628704.1230281
3738,42705920.408390485
2,4, 1, 4, 0,12, 0.00,60.00,Wednesday
135,278718611.7130605
3420,278718611.7130605
3738,27237330.092575423
2,4, 1, 4, 0,13, 0.00,60.00,Wednesday
135,284511525.7473638
3420,284511525.7473638
3738,31351205.050687008
2,4, 1, 4, 0,14, 0.00,60.00,Wednesday
135,289894129.4150424
3420,289894129.4150424
3738,26189702.813008703
2,4, 1, 4, 0,15, 0.00,60.00,Wednesday
135,275182970.10820526
3420,275182970.1082052
3738,20162358.474987995
2,4, 1, 4, 0,16, 0.00,60.00,Wednesday
135,274853282.9723808
3420,274853282.97238076
3738,15652705.375646915
2,4, 1, 4, 0,17, 0.00,60.00,Wednesday
135,294556686.5135559
3420,294556686.5135559
3738,25318578.899761163
2,4, 1, 4, 0,18, 0.00,60.00,Wednesday
135,251267316.60602063
3420,251267316.60602063
3738,20631977.949197866
2,4, 1, 4, 0,19, 0.00,60.00,Wednesday
135,131888589.07372302
3420,131888589.07372302
3738,37714540.541103825
2,4, 1, 4, 0,20, 0.00,60.00,Wednesday
135,113569604.38930234
3420,113569604.38930234
3738,52554108.24589509
2,4, 1, 4, 0,21, 0.00,60.00,Wednesday
135,102913361.90140839
3420,102913361.90140839
3738,65833880.561717674
2,4, 1, 4, 0,22, 0.00,60.00,Wednesday
135,99099294.84500085
3420,99099294.84500086
3738,77140171.07041092
2,4, 1, 4, 0,23, 0.00,60.00,Wednesday
135,77772390.65670998
3420,77772390.65670998
3738,6791184.0
2,4, 1, 4, 0,24, 0.00,60.00,Wednesday
135,72442274.24247962
3420,72442274.24247962
3738,6791184.0
2,5, 1, 5, 0, 1, 0.00,60.00,Thursday
135,57996196.7332391
3420,57996196.7332391
3738,6791184.0
2,5, 1, 5, 0, 2, 0.00,60.00,Thursday
135,57609860.1137362
3420,57609860.1137362
3738,6791184.0
2,5, 1, 5, 0, 3, 0.00,60.00,Thursday
135,57609860.1137362
3420,57609860.1137362
3738,6791184.0
2,5, 1, 5, 0, 4, 0.00,60.00,Thursday
135,57609860.1137362
3420,57609860.1137362
3738,6791184.0
2,5, 1, 5, 0, 5, 0.00,60.00,Thursday
135,57609860.1137362
3420,57609860.1137362
3738,6791184.0
2,5, 1, 5, 0, 6, 0.00,60.00,Thursday
135,57609860.1137362
3420,57609860.1137362
3738,6791184.0
2,5, 1, 5, 0, 7, 0.00,60.00,Thursday
135,100664134.13277073
3420,100664134.13277075
3738,6791184.0
2,5, 1, 5, 0, 8, 0.00,60.00,Thursday
135,179218138.09158877
3420,179218138.09158877
3738,123385563.81631427
2,5, 1, 5, 0, 9, 0.00,60.00,Thursday
135,310140494.9575479
3420,310140494.9575479
3738,66366961.95607806
2,5, 1, 5, 0,10, 0.00,60.00,Thursday
135,278302077.47215706
3420,278302077.47215706
3738,21145617.81198257
2,5, 1, 5, 0,11, 0.00,60.00,Thursday
135,277656547.2238385
3420,277656547.22383845
3738,11332705.54928314
2,5, 1, 5, 0,12, 0.00,60.00,Thursday
135,290287840.52319187
3420,290287840.5231918
3738,20890782.0365476
2,5, 1, 5, 0,13, 0.00,60.00,Thursday
135,290349019.8888911
3420,290349019.8888911
3738,31320858.562127728
2,5, 1, 5, 0,14, 0.00,60.00,Thursday
135,311941214.5494007
3420,311941214.54940075
3738,26189007.473221518
2,5, 1, 5, 0,15, 0.00,60.00,Thursday
135,305260067.94258845
3420,305260067.9425884
3738,20203910.290040478
2,5, 1, 5, 0,16, 0.00,60.00,Thursday
135,309027881.6614876
3420,309027881.6614876
3738,15641467.481528439
2,5, 1, 5, 0,17, 0.00,60.00,Thursday
135,312443656.95504934
3420,312443656.9550493
3738,25322054.82401494
2,5, 1, 5, 0,18, 0.00,60.00,Thursday
135,244621806.36539933
3420,244621806.36539933
3738,11106437.11808634
2,5, 1, 5, 0,19, 0.00,60.00,Thursday
135,132384235.43671827
3420,132384235.43671827
3738,18515542.883175965
2,5, 1, 5, 0,20, 0.00,60.00,Thursday
135,113569604.38930234
3420,113569604.38930234
3738,38182825.55833641
2,5, 1, 5, 0,21, 0.00,60.00,Thursday
135,102910895.06207252
3420,102910895.06207252
3738,50500896.487481296
2,5, 1, 5, 0,22, 0.00,60.00,Thursday
135,98331323.74705626
3420,98331323.74705628
3738,64229737.95698746
2,5, 1, 5, 0,23, 0.00,60.00,Thursday
135,77772390.65670998
3420,77772390.65670998
3738,6791184.0
2,5, 1, 5, 0,24, 0.00,60.00,Thursday
135,72442274.24247962
3420,72442274.24247962
3738,6791184.0
2,6, 1, 6, 0, 1, 0.00,60.00,Friday
135,57996196.7332391
3420,57996196.7332391
3738,6791184.0
2,6, 1, 6, 0, 2, 0.00,60.00,Friday
135,57609860.1137362
3420,57609860.1137362
3738,6791184.0
2,6, 1, 6, 0, 3, 0.00,60.00,Friday
135,57609860.1137362
3420,57609860.1137362
3738,6791184.0
2,6, 1, 6, 0, 4, 0.00,60.00,Friday
135,57609860.1137362
3420,57609860.1137362
3738,6791184.0
2,6, 1, 6, 0, 5, 0.00,60.00,Friday
135,57609860.1137362
3420,57609860.1137362
3738,6791184.0
2,6, 1, 6, 0, 6, 0.00,60.00,Friday
135,57609860.1137362
3420,57609860.1137362
3738,6791184.0
2,6, 1, 6, 0, 7, 0.00,60.00,Friday
135,104692760.88779551
3420,104692760.88779552
3738,6791184.0
2,6, 1, 6, 0, 8, 0.00,60.00,Friday
135,191230922.81471357
3420,191230922.81471357
3738,128552154.9998607
2,6, 1, 6, 0, 9, 0.00,60.00,Friday
135,313449081.7035528
3420,313449081.7035528
3738,89613570.99096458
2,6, 1, 6, 0,10, 0.00,60.00,Friday
135,269642642.22146577
3420,269642642.2214657
3738,82140433.02802077
2,6, 1, 6, 0,11, 0.00,60.00,Friday
135,261886479.9875229
3420,261886479.9875229
3738,71738689.1487914
2,6, 1, 6, 0,12, 0.00,60.00,Friday
135,279227605.82357264
3420,279227605.82357264
3738,49220175.092944235
2,6, 1, 6, 0,13, 0.00,60.00,Friday
135,288514578.30768704
3420,288514578.30768704
3738,28287816.253479224
2,6, 1, 6, 0,14, 0.00,60.00,Friday
135,301485464.5042886
3420,301485464.50428855
3738,27522710.58729694
2,6, 1, 6, 0,15, 0.00,60.00,Friday
135,288536581.7902574
3420,288536581.7902574
3738,18948093.63590509
2,6, 1, 6, 0,16, 0.00,60.00,Friday
135,291222764.0796864
3420,291222764.0796864
3738,15649013.703217
2,6, 1, 6, 0,17, 0.00,60.00,Friday
135,301524140.1565262
3420,301524140.1565261
3738,25643523.20672138
2,6, 1, 6, 0,18, 0.00,60.00,Friday
135,250636539.11324325
3420,250636539.11324325
3738,54800786.72640758
2,6, 1, 6, 0,19, 0.00,60.00,Friday
135,131485260.74506974
3420,131485260.74506974
3738,82860163.31580386
2,6, 1, 6, 0,20, 0.00,60.00,Friday
135,113698440.92511103
3420,113698440.92511103
3738,86038261.20579824
2,6, 1, 6, 0,21, 0.00,60.00,Friday
135,105065647.80495234
3420,105065647.80495235
3738,103349671.1367349
2,6, 1, 6, 0,22, 0.00,60.00,Friday
135,101879628.78208283
3420,101879628.78208286
3738,102049353.82039228
2,6, 1, 6, 0,23, 0.00,60.00,Friday
135,77772390.65670998
3420,77772390.65670998
3738,6791184.0
2,6, 1, 6, 0,24, 0.00,60.00,Friday
135,72442274.24247962
3420,72442274.24247962
3738,6791184.0
2,7, 1, 7, 0, 1, 0.00,60.00,Saturday
135,46745513.81922844
3420,46745513.81922843
3738,6791184.0
2,7, 1, 7, 0, 2, 0.00,60.00,Saturday
135,46359235.70955593
3420,46359235.709555924
3738,6791184.0
2,7, 1, 7, 0, 3, 0.00,60.00,Saturday
135,46359235.70955593
3420,46359235.709555924
3738,6791184.0
2,7, 1, 7, 0, 4, 0.00,60.00,Saturday
135,46359235.70955593
3420,46359235.709555924
3738,6791184.0
2,7, 1, 7, 0, 5, 0.00,60.00,Saturday
135,46359235.70955593
3420,46359235.709555924
3738,6791184.0
2,7, 1, 7, 0, 6, 0.00,60.00,Saturday
135,46359235.70955593
3420,46359235.709555924
3738,6791184.0
2,7, 1, 7, 0, 7, 0.00,60.00,Saturday
135,114243520.86393452
3420,114243520.86393452
3738,6791184.0
2,7, 1, 7, 0, 8, 0.00,60.00,Saturday
135,145336722.3926114
3420,145336722.3926114
3738,136705521.5249528
2,7, 1, 7, 0, 9, 0.00,60.00,Saturday
135,135880145.49639097
3420,135880145.49639097
3738,119728191.03389083
2,7, 1, 7, 0,10, 0.00,60.00,Saturday
135,136649462.9317931
3420,136649462.9317931
3738,106496351.49772719
2,7, 1, 7, 0,11, 0.00,60.00,Saturday
135,129025722.21317357
3420,129025722.21317354
3738,78888099.0334056
2,7, 1, 7, 0,12, 0.00,60.00,Saturday
135,137623695.46984386
3420,137623695.46984392
3738,37658309.10205995
2,7, 1, 7, 0,13, 0.00,60.00,Saturday
135,96882759.0683891
3420,96882759.0683891
3738,24908990.810949102
2,7, 1, 7, 0,14, 0.00,60.00,Saturday
135,86585388.12843831
3420,86585388.12843831
3738,26694846.20755917
2,7, 1, 7, 0,15, 0.00,60.00,Saturday
135,80777988.06353001
3420,80777988.06353001
3738,24327998.146299496
2,7, 1, 7, 0,16, 0.00,60.00,Saturday
135,76390043.05621484
3420,76390043.05621485
3738,32454978.106216453
2,7, 1, 7, 0,17, 0.00,60.00,Saturday
135,79595578.36627977
3420,79595578.36627978
3738,41560906.51453599
2,7, 1, 7, 0,18, 0.00,60.00,Saturday
135,83077160.33306564
3420,83077160.33306564
3738,55505117.38757939
2,7, 1, 7, 0,19, 0.00,60.00,Saturday
135,66276703.53612528
3420,66276703.53612528
3738,6791184.0
2,7, 1, 7, 0,20, 0.00,60.00,Saturday
135,49290893.81922844
3420,49290893.81922844
3738,6791184.0
2,7, 1, 7, 0,21, 0.00,60.00,Saturday
135,48904615.70955593
3420,48904615.70955593
3738,6791184.0
2,7, 1, 7, 0,22, 0.00,60.00,Saturday
135,48904615.70955593
3420,48904615.70955593
3738,6791184.0
2,7, 1, 7, 0,23, 0.00,60.00,Saturday
135,48904615.70955593
3420,48904615.70955593
3738,6791184.0
2,7, 1, 7, 0,24, 0.00,60.00,Saturday
135,48904615.70955593
3420,48904615.70955593
3738,6791184.0
2,8, 1, 8, 0, 1, 0.00,60.00,Sunday
135,46359235.70955593
3420,46359235.709555924
3738,6791184.0
2,8, 1, 8, 0, 2, 0.00,60.00,Sunday
135,46359235.70955593
3420,46359235.709555924
3738,6791184.0
2,8, 1, 8, 0, 3, 0.00,60.00,Sunday
135,46359235.70955593
3420,46359235.709555924
3738,6791184.0
2,8, 1, 8, 0, 4, 0.00,60.00,Sunday
135,46359235.70955593
3420,46359235.709555924
3738,6791184.0
2,8, 1, 8, 0, 5, 0.00,60.00,Sunday
135,46359235.70955593
3420,46359235.709555924
3738,6791184.0
2,8, 1, 8, 0, 6, 0.00,60.00,Sunday
135,46359235.70955593
3420,46359235.709555924
3738,6791184.0
2,8, 1, 8, 0, 7, 0.00,60.00,Sunday
135,66032185.73006148
3420,66032185.73006148
3738,6791184.0
2,8, 1, 8, 0, 8, 0.00,60.00,Sunday
135,53323580.330645084
3420,53323580.330645084
3738,6791184.0
2,8, 1, 8, 0, 9, 0.00,60.00,Sunday
135,46344166.24829911
3420,46344166.24829911
3738,6791184.0
2,8, 1, 8, 0,10, 0.00,60.00,Sunday
135,46288812.51597283
3420,46288812.51597283
3738,6791184.0
2,8, 1, 8, 0,11, 0.00,60.00,Sunday
135,47246006.34324
3420,47246006.34323999
3738,6791184.0
2,8, 1, 8, 0,12, 0.00,60.00,Sunday
135,50964555.3327159
3420,50964555.33271589
3738,6791184.0
2,8, 1, 8, 0,13, 0.00,60.00,Sunday
135,53625802.42750436
3420,53625802.42750437
3738,6791184.0
2,8, 1, 8, 0,14, 0.00,60.00,Sunday
135,54307215.677956074
3420,54307215.677956074
3738,6791184.0
2,8, 1, 8, 0,15, 0.00,60.00,Sunday
135,53571799.010946944
3420,53571799.010946944
3738,6791184.0
2,8, 1, 8, 0,16, 0.00,60.00,Sunday
135,54093156.71478446
3420,54093156.71478446
3738,6791184.0
2,8, 1, 8, 0,17, 0.00,60.00,Sunday
135,50079799.93191748
3420,50079799.93191748
3738,6791184.0
2,8, 1, 8, 0,18, 0.00,60.00,Sunday
135,66276671.30593526
3420,66276671.30593526
3738,6791184.0
2,8, 1, 8, 0,19, 0.00,60.00,Sunday
135,57105773.81922845
3420,57105773.81922844
3738,6791184.0
2,8, 1, 8, 0,20, 0.00,60.00,Sunday
135,48904615.70955593
3420,48904615.70955593
3738,6791184.0
2,8, 1, 8, 0,21, 0.00,60.00,Sunday
135,48904615.70955593
3420,48904615.70955593
3738,6791184.0
2,8, 1, 8, 0,22, 0.00,60.00,Sunday
135,48904615.70955593
3420,48904615.70955593
3738,6791184.0
2,8, 1, 8, 0,23, 0.00,60.00,Sunday
135,48904615.70955593
3420,48904615.70955593
3738,6791184.0
2,8, 1, 8, 0,24, 0.00,60.00,Sunday
135,48904615.70955593
3420,48904615.70955593
3738,6791184.0
2,9, 1, 9, 0, 1, 0.00,60.00,Monday
135,57609860.1137362
3420,57609860.1137362
3738,6791184.0
2,9, 1, 9, 0, 2, 0.00,60.00,Monday
135,57609860.1137362
3420,57609860.1137362
3738,6791184.0
2,9, 1, 9, 0, 3, 0.00,60.00,Monday
135,57609860.1137362
3420,57609860.1137362
3738,6791184.0
2,9, 1, 9, 0, 4, 0.00,60.00,Monday
135,57609860.1137362
3420,57609860.1137362
3738,6791184.0
2,9, 1, 9, 0, 5, 0.00,60.00,Monday
135,57609860.1137362
3420,57609860.1137362
3738,6791184.0
2,9, 1, 9, 0, 6, 0.00,60.00,Monday
135,57609860.1137362
3420,57609860.1137362
3738,6791184.0
2,9, 1, 9, 0, 7, 0.00,60.00,Monday
135,132372663.01436532
3420,132372663.01436532
3738,6791184.0
2,9, 1, 9, 0, 8, 0.00,60.00,Monday
135,223626438.0107499
3420,223626438.01074985
3738,138753728.09485507
2,9, 1, 9, 0, 9, 0.00,60.00,Monday
135,315043023.7809407
3420,315043023.78094065
3738,84704220.11697502
2,9, 1, 9, 0,10, 0.00,60.00,Monday
135,274134022.10216814
3420,274134022.10216814
3738,59953005.92052851
2,9, 1, 9, 0,11, 0.00,60.00,Monday
135,269093090.63818806
3420,269093090.638188
3738,24765030.340542726
2,9, 1, 9, 0,12, 0.00,60.00,Monday
135,287221976.84144527
3420,287221976.84144527
3738,20903859.2004366
2,9, 1, 9, 0,13, 0.00,60.00,Monday
135,289975720.5542114
3420,289975720.5542114
3738,31377121.743687578
2,9, 1, 9, 0,14, 0.00,60.00,Monday
135,305428286.6649734
3420,305428286.6649733
3738,26214860.397297047
2,9, 1, 9, 0,15, 0.00,60.00,Monday
135,297652501.17407036
3420,297652501.1740703
3738,20170810.555671953
2,9, 1, 9, 0,16, 0.00,60.00,Monday
135,305147267.2222617
3420,305147267.22226167
3738,15657221.142976418
2,9, 1, 9, 0,17, 0.00,60.00,Monday
135,317679564.4441776
3420,317679564.44417757
3738,25337008.450192496
2,9, 1, 9, 0,18, 0.00,60.00,Monday
135,241864796.3856224
3420,241864796.3856224
3738,18584154.474659882
2,9, 1, 9, 0,19, 0.00,60.00,Monday
135,130865385.7465888
3420,130865385.74658877
3738,49830690.15767386
2,9, 1, 9, 0,20, 0.00,60.00,Monday
135,114623521.46983984
3420,114623521.46983984
3738,62440367.12792854
2,9, 1, 9, 0,21, 0.00,60.00,Monday
135,106058723.97852421
3420,106058723.97852421
3738,54586877.968723334
2,9, 1, 9, 0,22, 0.00,60.00,Monday
135,103966434.11269759
3420,103966434.1126976
3738,64300412.803779006
2,9, 1, 9, 0,23, 0.00,60.00,Monday
135,77772390.65670998
3420,77772390.65670998
3738,6791184.0
2,9, 1, 9, 0,24, 0.00,60.00,Monday
135,72442274.24247962
3420,72442274.24247962
3738,6791184.0
2,10, 1,10, 0, 1, 0.00,60.00,Tuesday
135,57996196.7332391
3420,57996196.7332391
3738,6791184.0
2,10, 1,10, 0, 2, 0.00,60.00,Tuesday
135,57609860.1137362
3420,57609860.1137362
3738,6791184.0
2,10, 1,10, 0, 3, 0.00,60.00,Tuesday
135,57609860.1137362
3420,57609860.1137362
3738,6791184.0
2,10, 1,10, 0, 4, 0.00,60.00,Tuesday
135,57609860.1137362
3420,57609860.1137362
3738,6791184.0
2,10, 1,10, 0, 5, 0.00,60.00,Tuesday
135,57609860.1137362
3420,57609860.1137362
3738,6791184.0
2,10, 1,10, 0, 6, 0.00,60.00,Tuesday
135,57609860.1137362
3420,57609860.1137362
3738,6791184.0
2,10, 1,10, 0, 7, 0.00,60.00,Tuesday
135,127862875.89245823
3420,127862875.89245823
3738,6791184.0
2,10, 1,10, 0, 8, 0.00,60.00,Tuesday
135,214493432.11354893
3420,214493432.1135489
3738,195149938.023553
2,10, 1,10, 0, 9, 0.00,60.00,Tuesday
135,313186746.4710816
3420,313186746.4710817
3738,138966900.00698298
2,10, 1,10, 0,10, 0.00,60.00,Tuesday
135,268569084.0982867
3420,268569084.0982867
3738,123810964.6646848
2,10, 1,10, 0,11, 0.00,60.00,Tuesday
135,257986450.9711003
3420,257986450.9711003
3738,111535022.11911722
2,10, 1,10, 0,12, 0.00,60.00,Tuesday
135,265697637.6801248
3420,265697637.6801248
3738,118807820.04048395
2,10, 1,10, 0,13, 0.00,60.00,Tuesday
135,286375995.41560405
3420,286375995.415604
3738,96266053.74256642
2,10, 1,10, 0,14, 0.00,60.00,Tuesday
135,279573279.7822042
3420,279573279.7822042
3738,81970844.42254123
2,10, 1,10, 0,15, 0.00,60.00,Tuesday
135,269160355.5354664
3420,269160355.5354663
3738,38259639.49727357
2,10, 1,10, 0,16, 0.00,60.00,Tuesday
135,273053195.7707497
3420,273053195.7707496
3738,27269292.433338027
2,10, 1,10, 0,17, 0.00,60.00,Tuesday
135,284360897.9728136
3420,284360897.9728136
3738,53372710.89257935
2,10, 1,10, 0,18, 0.00,60.00,Tuesday
135,245803020.65651634
3420,245803020.65651637
3738,80147926.76131941
2,10, 1,10, 0,19, 0.00,60.00,Tuesday
135,135751223.1749725
3420,135751223.1749725
3738,145943139.4055146
2,10, 1,10, 0,20, 0.00,60.00,Tuesday
135,121352594.3989127
3420,121352594.39891267
3738,147822148.562243
2,10, 1,10, 0,21, 0.00,60.00,Tuesday
135,114520450.55487645
3420,114520450.55487645
3738,157101489.60432482
2,10, 1,10, 0,22, 0.00,60.00,Tuesday
135,117916093.51494393
3420,117916093.51494393
3738,170997517.82773933
2,10, 1,10, 0,23, 0.00,60.00,Tuesday
135,77772390.65670998
3420,77772390.65670998
3738,6791184.0
2,10, 1,10, 0,24, 0.00,60.00,Tuesday
135,72442274.24247962
3420,72442274.24247962
3738,6791184.0
2,11, 1,11, 0, 1, 0.00,60.00,Wednesday
135,57996196.7332391
3420,57996196.7332391
3738,6791184.0
2,11, 1,11, 0, 2, 0.00,60.00,Wednesday
135,57609860.1137362
3420,57609860.1137362
3738,6791184.0
2,11, 1,11, 0, 3, 0.00,60.00,Wednesday
135,57609860.1137362
3420,57609860.1137362
3738,6791184.0
2,11, 1,11, 0, 4, 0.00,60.00,Wednesday
135,57609860.1137362
3420,57609860.1137362
3738,6791184.0
2,11, 1,11, 0, 5, 0.00,60.00,Wednesday
135,57609860.1137362
3420,57609860.1137362
3738,6791184.0
2,11, 1,11, 0, 6, 0.00,60.00,Wednesday
135,65434771.63786903
3420,65434771.63786903
3738,6791184.0
2,11, 1,11, 0, 7, 0.00,60.00,Wednesday
135,146926218.78092885
3420,146926218.78092882
3738,6791184.0
2,11, 1,11, 0, 8, 0.00,60.00,Wednesday
135,228005737.2042523
3420,228005737.2042523
3738,160054035.34962285
2,11, 1,11, 0, 9, 0.00,60.00,Wednesday
135,319908268.16613805
3420,319908268.16613805
3738,106725109.53877132
2,11, 1,11, 0,10, 0.00,60.00,Wednesday
135,271993282.757992
3420,271993282.757992
3738,101552328.67020059
2,11, 1,11, 0,11, 0.00,60.00,Wednesday
135,260717674.34452417
3420,260717674.34452415
3738,74324782.80704705
2,11, 1,11, 0,12, 0.00,60.00,Wednesday
135,270340844.6430849
3420,270340844.6430849
3738,82016520.00833628
2,11, 1,11, 0,13, 0.00,60.00,Wednesday
135,288385960.55625737
3420,288385960.55625737
3738,88298374.98104575
2,11, 1,11, 0,14, 0.00,60.00,Wednesday
135,278819327.1479566
3420,278819327.1479566
3738,77768091.38868383
2,11, 1,11, 0,15, 0.00,60.00,Wednesday
135,263408228.034055
3420,263408228.03405496
3738,66936121.29061738
2,11, 1,11, 0,16, 0.00,60.00,Wednesday
135,262277236.99183863
3420,262277236.99183857
3738,73628814.32244642
2,11, 1,11, 0,17, 0.00,60.00,Wednesday
135,279244649.0696646
3420,279244649.0696645
3738,98408061.52297302
2,11, 1,11, 0,18, 0.00,60.00,Wednesday
135,243061335.41359037
3420,243061335.41359034
3738,95734735.71547858
2,11, 1,11, 0,19, 0.00,60.00,Wednesday
135,146182343.75376076
3420,146182343.75376076
3738,142940745.8878728
2,11, 1,11, 0,20, 0.00,60.00,Wednesday
135,125904251.37870406
3420,125904251.37870406
3738,147276977.62994516
2,11, 1,11, 0,21, 0.00,60.00,Wednesday
135,121227657.67872179
3420,121227657.67872179
3738,143585688.79990762
2,11, 1,11, 0,22, 0.00,60.00,Wednesday
135,121551860.98394012
3420,121551860.98394012
3738,154069339.04546928
2,11, 1,11, 0,23, 0.00,60.00,Wednesday
135,77772390.65670998
3420,77772390.65670998
3738,6791184.0
2,11, 1,11, 0,24, 0.00,60.00,Wednesday
135,72442274.24247962
3420,72442274.24247962
3738,6791184.0
2,12, 1,12, 0, 1, 0.00,60.00,Thursday
135,57996196.7332391
3420,57996196.7332391
3738,6791184.0
2,12, 1,12, 0, 2, 0.00,60.00,Thursday
135,57609860.1137362
3420,57609860.1137362
3738,6791184.0
2,12, 1,12, 0, 3, 0.00,60.00,Thursday
135,57609860.1137362
3420,57609860.1137362
3738,6791184.0
2,12, 1,12, 0, 4, 0.00,60.00,Thursday
135,57609860.1137362
3420,57609860.1137362
3738,6791184.0
2,12, 1,12, 0, 5, 0.00,60.00,Thursday
135,57609860.1137362
3420,57609860.1137362
3738,6791184.0
2,12, 1,12, 0, 6, 0.00,60.00,Thursday
135,57609860.1137362
3420,57609860.1137362
3738,6791184.0
2,12, 1,12, 0, 7, 0.00,60.00,Thursday
135,136331470.35404322
3420,136331470.35404322
3738,6791184.0
2,12, 1,12, 0, 8, 0.00,60.00,Thursday
135,223469400.59690636
3420,223469400.59690636
3738,159625064.87526876
2,12, 1,12, 0, 9, 0.00,60.00,Thursday
135,316981194.2832321
3420,316981194.2832322
3738,103358708.71597773
2,12, 1,12, 0,10, 0.00,60.00,Thursday
135,269577221.0002859
3420,269577221.0002859
3738,92301222.89040622
2,12, 1,12, 0,11, 0.00,60.00,Thursday
135,258945489.71965188
3420,258945489.71965188
3738,71027702.81421803
2,12, 1,12, 0,12, 0.00,60.00,Thursday
135,270702836.0721915
3420,270702836.0721915
3738,64677739.813736826
2,12, 1,12, 0,13, 0.00,60.00,Thursday
135,291340005.7135197
3420,291340005.7135197
3738,55723498.88427369
2,12, 1,12, 0,14, 0.00,60.00,Thursday
135,281895202.23675704
3420,281895202.23675704
3738,52986521.97938046
2,12, 1,12, 0,15, 0.00,60.00,Thursday
135,266803583.78645837
3420,266803583.78645837
3738,33257465.648252495
2,12, 1,12, 0,16, 0.00,60.00,Thursday
135,266683756.7970466
3420,266683756.7970466
3738,40828993.10317481
2,12, 1,12, 0,17, 0.00,60.00,Thursday
135,285251199.9969037
3420,285251199.9969037
3738,47451477.32928506
2,12, 1,12, 0,18, 0.00,60.00,Thursday
135,247703254.88019088
3420,247703254.88019088
3738,57576570.480513684
2,12, 1,12, 0,19, 0.00,60.00,Thursday
135,137804898.4279494
3420,137804898.4279494
3738,86992692.17116007
2,12, 1,12, 0,20, 0.00,60.00,Thursday
135,117866780.84245889
3420,117866780.84245889
3738,83722329.47187251
2,12, 1,12, 0,21, 0.00,60.00,Thursday
135,110708047.54411834
3420,110708047.54411837
3738,87001258.92946465
2,12, 1,12, 0,22, 0.00,60.00,Thursday
135,108907510.02441563
3420,108907510.02441563
3738,90972453.54216611
2,12, 1,12, 0,23, 0.00,60.00,Thursday
135,77772390.65670998
3420,77772390.65670998
3738,6791184.0
2,12, 1,12, 0,24, 0.00,60.00,Thursday
135,72442274.24247962
3420,72442274.24247962
3738,6791184.0
2,13, 1,13, 0, 1, 0.00,60.00,Friday
135,57996196.7332391
3420,57996196.7332391
3738,6791184.0