Program Version,EnergyPlus, Version 9.6.0-f420c06a69, YMD=2022.07.06 16:33
1,5,Environment Title[],Latitude[deg],Longitude[deg],Time Zone[],Elevation[m]
2,8,Day of Simulation[],Month[],Day of Month[],DST Indicator[1=yes 0=no],Hour[],StartMinute[],EndMinute[],DayType
3,5,Cumulative Day of Simulation[],Month[],Day of Month[],DST Indicator[1=yes 0=no],DayType  ! When Daily Meters Requested
4,2,Cumulative Days of Simulation[],Month[]  ! When Monthly Meters Requested
5,1,Cumulative Days of Simulation[] ! When Run Period Meters Requested
6,1,Calendar Year of Simulation[] ! When Annual Meters Requested
135,1,Electricity:Facility [J] !Hourly
3420,1,ElectricityNet:Facility [J] !Hourly
3738,1,NaturalGas:Facility [J] !Hourly
End of Data Dictionary
1,RUNPERIOD 1,  35.04,-106.62,  -7.00,1619.00
2,1, 1, 1, 0, 1, 0.00,60.00,Holiday
135,46359074.93593144
3420,46359074.93593143
3738,6791184.0
2,1, 1, 1, 0, 2, 0.00,60.00,Holiday
135,46359235.70955593
3420,46359235.709555924
3738,6791184.0
2,1, 1, 1, 0, 3, 0.00,60.00,Holiday
135,46359235.70955593
3420,46359235.709555924
3738,6791184.0
2,1, 1, 1, 0, 4, 0.00,60.00,Holiday
135,46359235.70955593
3420,46359235.709555924
3738,6791184.0
2,1, 1, 1, 0, 5, 0.00,60.00,Holiday
135,46359235.70955593
3420,46359235.709555924
3738,6791184.0
2,1, 1, 1, 0, 6, 0.00,60.00,Holiday
135,46359235.70955593
3420,46359235.709555924
3738,6791184.0
2,1, 1, 1, 0, 7, 0.00,60.00,Holiday
135,66032185.73006148
3420,66032185.73006148
3738,6791184.0
2,1, 1, 1, 0, 8, 0.00,60.00,Holiday
135,50074623.774579875
3420,50074623.774579875
3738,6791184.0
2,1, 1, 1, 0, 9, 0.00,60.00,Holiday
135,46351708.9331394
3420,46351708.9331394
3738,6791184.0
2,1, 1, 1, 0,10, 0.00,60.00,Holiday
135,46288813.17904917
3420,46288813.179049164
3738,6791184.0
2,1, 1, 1, 0,11, 0.00,60.00,Holiday
135,50556028.58634514
3420,50556028.58634514
3738,6791184.0
2,1, 1, 1, 0,12, 0.00,60.00,Holiday
135,53620061.07971074
3420,53620061.07971075
3738,6791184.0
2,1, 1, 1, 0,13, 0.00,60.00,Holiday
135,54251377.4482968
3420,54251377.44829681
3738,6791184.0
2,1, 1, 1, 0,14, 0.00,60.00,Holiday
135,58744815.664830714
3420,58744815.66483073
3738,6791184.0
2,1, 1, 1, 0,15, 0.00,60.00,Holiday
135,64652365.25448359
3420,64652365.25448359
3738,6791184.0
2,1, 1, 1, 0,16, 0.00,60.00,Holiday
135,62671968.53224909
3420,62671968.53224909
3738,6791184.0
2,1, 1, 1, 0,17, 0.00,60.00,Holiday
135,54610940.42094375
3420,54610940.42094375
3738,6791184.0
2,1, 1, 1, 0,18, 0.00,60.00,Holiday
135,66905826.86107348
3420,66905826.86107348
3738,6791184.0
2,1, 1, 1, 0,19, 0.00,60.00,Holiday
135,57105773.81922845
3420,57105773.81922844
3738,6791184.0
2,1, 1, 1, 0,20, 0.00,60.00,Holiday
135,48904615.70955593
3420,48904615.70955593
3738,6791184.0
2,1, 1, 1, 0,21, 0.00,60.00,Holiday
135,48904615.70955593
3420,48904615.70955593
3738,6791184.0
2,1, 1, 1, 0,22, 0.00,60.00,Holiday
135,48904615.70955593
3420,48904615.70955593
3738,6791184.0
2,1, 1, 1, 0,23, 0.00,60.00,Holiday
135,48904615.70955593
3420,48904615.70955593
3738,6791184.0
2,1, 1, 1, 0,24, 0.00,60.00,Holiday
135,48904615.70955593
3420,48904615.70955593
3738,6791184.0
2,2, 1, 2, 0, 1, 0.00,60.00,Monday
135,57609860.1137362
3420,57609860.1137362
3738,6791184.0
2,2, 1, 2, 0, 2, 0.00,60.00,Monday
135,57609860.1137362
3420,57609860.1137362
3738,6791184.0
2,2, 1, 2, 0, 3, 0.00,60.00,Monday
135,57609860.1137362
3420,57609860.1137362
3738,6791184.0
2,2, 1, 2, 0, 4, 0.00,60.00,Monday
135,57609860.1137362
3420,57609860.1137362
3738,6791184.0
2,2, 1, 2, 0, 5, 0.00,60.00,Monday
135,57609860.1137362
3420,57609860.1137362
3738,6791184.0
2,2, 1, 2, 0, 6, 0.00,60.00,Monday
135,57609860.1137362
3420,57609860.1137362
3738,6791184.0
2,2, 1, 2, 0, 7, 0.00,60.00,Monday
135,134878218.9732619
3420,134878218.97326186
3738,6791184.0
2,2, 1, 2, 0, 8, 0.00,60.00,Monday
135,224447349.34681612
3420,224447349.34681612
3738,144051788.3317502
2,2, 1, 2, 0, 9, 0.00,60.00,Monday
135,310113173.5226268
3420,310113173.52262676
3738,88876839.65152809
2,2, 1, 2, 0,10, 0.00,60.00,Monday
135,271365063.6523837
3420,271365063.6523836
3738,60265923.85270449
2,2, 1, 2, 0,11, 0.00,60.00,Monday
135,268042805.41555253
3420,268042805.41555253
3738,22324186.92765486
2,2, 1, 2, 0,12, 0.00,60.00,Monday
135,288256589.4717232
3420,288256589.4717232
3738,20876794.54329522
2,2, 1, 2, 0,13, 0.00,60.00,Monday
135,289626908.83261126
3420,289626908.83261126
3738,31334423.78333511
2,2, 1, 2, 0,14, 0.00,60.00,Monday
135,304560312.7598077
3420,304560312.75980777
3738,26165958.14784857
2,2, 1, 2, 0,15, 0.00,60.00,Monday
135,297207055.59561163
3420,297207055.5956117
3738,16649506.089210246
2,2, 1, 2, 0,16, 0.00,60.00,Monday
135,301765850.1485542
3420,301765850.1485542
3738,19089949.697671723
2,2, 1, 2, 0,17, 0.00,60.00,Monday
135,300883689.7626623
3420,300883689.7626623
3738,20696611.81849547
2,2, 1, 2, 0,18, 0.00,60.00,Monday
135,237763786.45298475
3420,237763786.45298478
3738,22828722.127478585
2,2, 1, 2, 0,19, 0.00,60.00,Monday
135,131185250.1779861
3420,131185250.1779861
3738,54000351.72755138
2,2, 1, 2, 0,20, 0.00,60.00,Monday
135,115788227.31176195
3420,115788227.31176195
3738,68630236.21559957
2,2, 1, 2, 0,21, 0.00,60.00,Monday
135,107180701.07736793
3420,107180701.07736793
3738,80740475.22169581
2,2, 1, 2, 0,22, 0.00,60.00,Monday
135,104935694.04120313
3420,104935694.04120316
3738,82360406.46165311
2,2, 1, 2, 0,23, 0.00,60.00,Monday
135,77772390.65670998
3420,77772390.65670998
3738,6791184.0
2,2, 1, 2, 0,24, 0.00,60.00,Monday
135,72442274.24247962
3420,72442274.24247962
3738,6791184.0
2,3, 1, 3, 0, 1, 0.00,60.00,Tuesday
135,57996196.7332391
3420,57996196.7332391
3738,6791184.0
2,3, 1, 3, 0, 2, 0.00,60.00,Tuesday
135,57609860.1137362
3420,57609860.1137362
3738,6791184.0
2,3, 1, 3, 0, 3, 0.00,60.00,Tuesday
135,57609860.1137362
3420,57609860.1137362
3738,6791184.0
2,3, 1, 3, 0, 4, 0.00,60.00,Tuesday
135,57609860.1137362
3420,57609860.1137362
3738,6791184.0
2,3, 1, 3, 0, 5, 0.00,60.00,Tuesday
135,57609860.1137362
3420,57609860.1137362
3738,6791184.0
2,3, 1, 3, 0, 6, 0.00,60.00,Tuesday
135,57609860.1137362
3420,57609860.1137362
3738,6791184.0
2,3, 1, 3, 0, 7, 0.00,60.00,Tuesday
135,110246891.9321736
3420,110246891.9321736
3738,6791184.0
2,3, 1, 3, 0, 8, 0.00,60.00,Tuesday
135,189787777.19002396
3420,189787777.19002393
3738,127893569.43827754
2,3, 1, 3, 0, 9, 0.00,60.00,Tuesday
135,311735474.6462774
3420,311735474.64627737
3738,74048611.90492582
2,3, 1, 3, 0,10, 0.00,60.00,Tuesday
135,277285498.1859546
3420,277285498.1859546
3738,33473696.454957783
2,3, 1, 3, 0,11, 0.00,60.00,Tuesday
135,276669119.4453627
3420,276669119.44536257
3738,11005409.7709702
2,3, 1, 3, 0,12, 0.00,60.00,Tuesday
135,294510040.65947235
3420,294510040.65947235
3738,23274910.85150368
2,3, 1, 3, 0,13, 0.00,60.00,Tuesday
135,296008760.87337774
3420,296008760.87337774
3738,31313196.53816751
2,3, 1, 3, 0,14, 0.00,60.00,Tuesday
135,312459596.2197046
3420,312459596.2197046
3738,26179341.570204668
2,3, 1, 3, 0,15, 0.00,60.00,Tuesday
135,300132587.72396576
3420,300132587.72396576
3738,20134709.813017763
2,3, 1, 3, 0,16, 0.00,60.00,Tuesday
135,303905456.6083193
3420,303905456.6083192
3738,15642458.513267582
2,3, 1, 3, 0,17, 0.00,60.00,Tuesday
135,306143708.642809
3420,306143708.6428089
3738,20958292.106283188
2,3, 1, 3, 0,18, 0.00,60.00,Tuesday
135,241887659.15678734
3420,241887659.15678728
3738,17408500.555825397
2,3, 1, 3, 0,19, 0.00,60.00,Tuesday
135,131936317.85543132
3420,131936317.85543132
3738,31714708.765812345
2,3, 1, 3, 0,20, 0.00,60.00,Tuesday
135,113569604.38930234
3420,113569604.38930234
3738,51650092.05562477
2,3, 1, 3, 0,21, 0.00,60.00,Tuesday
135,102910895.06207252
3420,102910895.06207252
3738,60710470.68437332
2,3, 1, 3, 0,22, 0.00,60.00,Tuesday
135,99700727.8095243
3420,99700727.80952433
3738,89792459.07201333
2,3, 1, 3, 0,23, 0.00,60.00,Tuesday
135,77772390.65670998
3420,77772390.65670998
3738,6791184.0
2,3, 1, 3, 0,24, 0.00,60.00,Tuesday
135,72442274.24247962
3420,72442274.24247962
3738,6791184.0
2,4, 1, 4, 0, 1, 0.00,60.00,Wednesday
135,57996196.7332391
3420,57996196.7332391
3738,6791184.0
2,4, 1, 4, 0, 2, 0.00,60.00,Wednesday
135,57609860.1137362
3420,57609860.1137362
3738,6791184.0
2,4, 1, 4, 0, 3, 0.00,60.00,Wednesday
135,57609860.1137362
3420,57609860.1137362
3738,6791184.0
2,4, 1, 4, 0, 4, 0.00,60.00,Wednesday
135,57609860.1137362
3420,57609860.1137362
3738,6791184.0
2,4, 1, 4, 0, 5, 0.00,60.00,Wednesday
135,57609860.1137362
3420,57609860.1137362
3738,6791184.0
2,4, 1, 4, 0, 6, 0.00,60.00,Wednesday
135,57609860.1137362
3420,57609860.1137362
3738,6791184.0
2,4, 1, 4, 0, 7, 0.00,60.00,Wednesday
135,106404852.69745946
3420,106404852.69745946
3738,6791184.0
2,4, 1, 4, 0, 8, 0.00,60.00,Wednesday
135,188565720.77044547
3420,188565720.77044547
3738,148199627.5746022
2,4, 1, 4, 0, 9, 0.00,60.00,Wednesday
135,309354701.0787325
3420,309354701.07873243
3738,87295595.8595211
2,4, 1, 4, 0,10, 0.00,60.00,Wednesday
135,271026351.7007154
3420,271026351.7007154
3738,59254591.49081121
2,4, 1, 4, 0,11, 0.00,60.00,Wednesday
135,265318671.5172772
3420,265318671.51727718
3738,39948447.48624557
2,4, 1, 4, 0,12, 0.00,60.00,Wednesday
135,279645244.1066742
3420,279645244.1066742
3738,25541763.37515947
2,4, 1, 4, 0,13, 0.00,60.00,Wednesday
135,285036500.36897314
3420,285036500.36897314
3738,31353602.7696282
2,4, 1, 4, 0,14, 0.00,60.00,Wednesday
135,290685247.22720414
3420,290685247.2272042
3738,26188331.40128117
2,4, 1, 4, 0,15, 0.00,60.00,Wednesday
135,275869938.016961
3420,275869938.016961
3738,20161876.077216543
2,4, 1, 4, 0,16, 0.00,60.00,Wednesday
135,275561594.01921284
3420,275561594.01921284
3738,15652007.014608864
2,4, 1, 4, 0,17, 0.00,60.00,Wednesday
135,295050112.0482503
3420,295050112.0482503
3738,25318932.60453754
2,4, 1, 4, 0,18, 0.00,60.00,Wednesday
135,250937232.52106398
3420,250937232.521064
3738,18172635.687563766
2,4, 1, 4, 0,19, 0.00,60.00,Wednesday
135,131963474.08535361
3420,131963474.08535364
3738,34092719.66975884
2,4, 1, 4, 0,20, 0.00,60.00,Wednesday
135,113569604.38930234
3420,113569604.38930234
3738,48641009.18389044
2,4, 1, 4, 0,21, 0.00,60.00,Wednesday
135,102910895.06207252
3420,102910895.06207252
3738,62017398.94849987
2,4, 1, 4, 0,22, 0.00,60.00,Wednesday
135,98643202.27409184
3420,98643202.27409185
3738,73472639.48549943
2,4, 1, 4, 0,23, 0.00,60.00,Wednesday
135,77772390.65670998
3420,77772390.65670998
3738,6791184.0
2,4, 1, 4, 0,24, 0.00,60.00,Wednesday
135,72442274.24247962
3420,72442274.24247962
3738,6791184.0
2,5, 1, 5, 0, 1, 0.00,60.00,Thursday
135,57996196.7332391
3420,57996196.7332391
3738,6791184.0
2,5, 1, 5, 0, 2, 0.00,60.00,Thursday
135,57609860.1137362
3420,57609860.1137362
3738,6791184.0
2,5, 1, 5, 0, 3, 0.00,60.00,Thursday
135,57609860.1137362
3420,57609860.1137362
3738,6791184.0
2,5, 1, 5, 0, 4, 0.00,60.00,Thursday
135,57609860.1137362
3420,57609860.1137362
3738,6791184.0
2,5, 1, 5, 0, 5, 0.00,60.00,Thursday
135,57609860.1137362
3420,57609860.1137362
3738,6791184.0
2,5, 1, 5, 0, 6, 0.00,60.00,Thursday
135,57609860.1137362
3420,57609860.1137362
3738,6791184.0
2,5, 1, 5, 0, 7, 0.00,60.00,Thursday
135,99605482.22971714
3420,99605482.22971717
3738,6791184.0
2,5, 1, 5, 0, 8, 0.00,60.00,Thursday
135,176848803.66143382
3420,176848803.66143382
3738,118918519.20036617
2,5, 1, 5, 0, 9, 0.00,60.00,Thursday
135,310410716.45027816
3420,310410716.45027816
3738,63718647.53624899
2,5, 1, 5, 0,10, 0.00,60.00,Thursday
135,279145913.06611407
3420,279145913.06611407
3738,18769758.24929616
2,5, 1, 5, 0,11, 0.00,60.00,Thursday
135,278477659.7647417
3420,278477659.76474166
3738,11332778.247828975
2,5, 1, 5, 0,12, 0.00,60.00,Thursday
135,291018123.9829017
3420,291018123.9829017
3738,20890680.988424744
2,5, 1, 5, 0,13, 0.00,60.00,Thursday
135,291884732.64979345
3420,291884732.6497935
3738,31320938.161408074
2,5, 1, 5, 0,14, 0.00,60.00,Thursday
135,314588481.8216781
3420,314588481.8216781
3738,26189110.105443515
2,5, 1, 5, 0,15, 0.00,60.00,Thursday
135,307964088.8082272
3420,307964088.8082271
3738,20204411.469256587
2,5, 1, 5, 0,16, 0.00,60.00,Thursday
135,311795498.4440459
3420,311795498.44404584
3738,15641762.104225928
2,5, 1, 5, 0,17, 0.00,60.00,Thursday
135,314785696.07502025
3420,314785696.07502025
3738,25321980.125197552
2,5, 1, 5, 0,18, 0.00,60.00,Thursday
135,245034952.2600156
3420,245034952.26001555
3738,11105506.040833417
2,5, 1, 5, 0,19, 0.00,60.00,Thursday
135,132573443.45313579
3420,132573443.45313579
3738,16555481.42229817
2,5, 1, 5, 0,20, 0.00,60.00,Thursday
135,113569604.38930234
3420,113569604.38930234
3738,34414366.35249759
2,5, 1, 5, 0,21, 0.00,60.00,Thursday
135,102910895.06207252
3420,102910895.06207252
3738,46617038.61522231
2,5, 1, 5, 0,22, 0.00,60.00,Thursday
135,98267997.61519502
3420,98267997.61519504
3738,60475483.2077232
2,5, 1, 5, 0,23, 0.00,60.00,Thursday
135,77772390.65670998
3420,77772390.65670998
3738,6791184.0
2,5, 1, 5, 0,24, 0.00,60.00,Thursday
135,72442274.24247962
3420,72442274.24247962
3738,6791184.0
2,6, 1, 6, 0, 1, 0.00,60.00,Friday
135,57996196.7332391
3420,57996196.7332391
3738,6791184.0
2,6, 1, 6, 0, 2, 0.00,60.00,Friday
135,57609860.1137362
3420,57609860.1137362
3738,6791184.0
2,6, 1, 6, 0, 3, 0.00,60.00,Friday
135,57609860.1137362
3420,57609860.1137362
3738,6791184.0
2,6, 1, 6, 0, 4, 0.00,60.00,Friday
135,57609860.1137362
3420,57609860.1137362
3738,6791184.0
2,6, 1, 6, 0, 5, 0.00,60.00,Friday
135,57609860.1137362
3420,57609860.1137362
3738,6791184.0
2,6, 1, 6, 0, 6, 0.00,60.00,Friday
135,57609860.1137362
3420,57609860.1137362
3738,6791184.0
2,6, 1, 6, 0, 7, 0.00,60.00,Friday
135,103332675.77662693
3420,103332675.77662693
3738,6791184.0
2,6, 1, 6, 0, 8, 0.00,60.00,Friday
135,188996787.99626085
3420,188996787.99626082
3738,123669341.24950238
2,6, 1, 6, 0, 9, 0.00,60.00,Friday
135,312823764.835119
3420,312823764.835119
3738,87141638.73130357
2,6, 1, 6, 0,10, 0.00,60.00,Friday
135,269947992.86958563
3420,269947992.8695856
3738,79633206.58854693
2,6, 1, 6, 0,11, 0.00,60.00,Friday
135,262520791.2102518
3420,262520791.2102518
3738,69104251.40758911
2,6, 1, 6, 0,12, 0.00,60.00,Friday
135,280381312.9326463
3420,280381312.9326462
3738,46192133.16639331
2,6, 1, 6, 0,13, 0.00,60.00,Friday
135,289606371.5740332
3420,289606371.57403314
3738,27998984.710618816
2,6, 1, 6, 0,14, 0.00,60.00,Friday
135,306463437.7267387
3420,306463437.72673863
3738,27469936.20340094
2,6, 1, 6, 0,15, 0.00,60.00,Friday
135,299170989.6144536
3420,299170989.61445355
3738,18996855.386032432
2,6, 1, 6, 0,16, 0.00,60.00,Friday
135,302357418.5898717
3420,302357418.58987164
3738,15649127.287257463
2,6, 1, 6, 0,17, 0.00,60.00,Friday
135,306425990.3061273
3420,306425990.30612725
3738,25324708.454373885
2,6, 1, 6, 0,18, 0.00,60.00,Friday
135,251089302.51449898
3420,251089302.51449898
3738,51878518.987101994
2,6, 1, 6, 0,19, 0.00,60.00,Friday
135,131520703.4104164
3420,131520703.41041641
3738,78826069.8962755
2,6, 1, 6, 0,20, 0.00,60.00,Friday
135,113582851.6557531
3420,113582851.6557531
3738,82143282.3938118
2,6, 1, 6, 0,21, 0.00,60.00,Friday
135,104573514.80358131
3420,104573514.80358131
3738,99561176.27974844
2,6, 1, 6, 0,22, 0.00,60.00,Friday
135,101327025.08401453
3420,101327025.08401453
3738,98386088.28740925
2,6, 1, 6, 0,23, 0.00,60.00,Friday
135,77772390.65670998
3420,77772390.65670998
3738,6791184.0
2,6, 1, 6, 0,24, 0.00,60.00,Friday
135,72442274.24247962
3420,72442274.24247962
3738,6791184.0
2,7, 1, 7, 0, 1, 0.00,60.00,Saturday
135,46745513.81922844
3420,46745513.81922843
3738,6791184.0
2,7, 1, 7, 0, 2, 0.00,60.00,Saturday
135,46359235.70955593
3420,46359235.709555924
3738,6791184.0
2,7, 1, 7, 0, 3, 0.00,60.00,Saturday
135,46359235.70955593
3420,46359235.709555924
3738,6791184.0
2,7, 1, 7, 0, 4, 0.00,60.00,Saturday
135,46359235.70955593
3420,46359235.709555924
3738,6791184.0
2,7, 1, 7, 0, 5, 0.00,60.00,Saturday
135,46359235.70955593
3420,46359235.709555924
3738,6791184.0
2,7, 1, 7, 0, 6, 0.00,60.00,Saturday
135,46359235.70955593
3420,46359235.709555924
3738,6791184.0
2,7, 1, 7, 0, 7, 0.00,60.00,Saturday
135,112299270.37637568
3420,112299270.37637568
3738,6791184.0
2,7, 1, 7, 0, 8, 0.00,60.00,Saturday
135,141313542.04262608
3420,141313542.04262608
3738,125404866.06443354
2,7, 1, 7, 0, 9, 0.00,60.00,Saturday
135,133809325.67820314
3420,133809325.67820312
3738,106649426.70546898
2,7, 1, 7, 0,10, 0.00,60.00,Saturday
135,135469180.37734026
3420,135469180.37734026
3738,91771316.99014956
2,7, 1, 7, 0,11, 0.00,60.00,Saturday
135,128286286.99026437
3420,128286286.99026437
3738,62538155.667617925
2,7, 1, 7, 0,12, 0.00,60.00,Saturday
135,136286771.39097413
3420,136286771.39097416
3738,23803623.6792768
2,7, 1, 7, 0,13, 0.00,60.00,Saturday
135,96373603.5245983
3420,96373603.5245983
3738,12476948.331125475
2,7, 1, 7, 0,14, 0.00,60.00,Saturday
135,86591832.97928911
3420,86591832.97928913
3738,12501977.614645358
2,7, 1, 7, 0,15, 0.00,60.00,Saturday
135,80777988.06353001
3420,80777988.06353001
3738,9017355.949007012
2,7, 1, 7, 0,16, 0.00,60.00,Saturday
135,76233398.28453368
3420,76233398.28453368
3738,13216361.759621708
2,7, 1, 7, 0,17, 0.00,60.00,Saturday
135,78684287.47758788
3420,78684287.47758788
3738,20140078.87486612
2,7, 1, 7, 0,18, 0.00,60.00,Saturday
135,83077160.33306564
3420,83077160.33306564
3738,33994430.51072848
2,7, 1, 7, 0,19, 0.00,60.00,Saturday
135,66276703.53612528
3420,66276703.53612528
3738,6791184.0
2,7, 1, 7, 0,20, 0.00,60.00,Saturday
135,49290893.81922844
3420,49290893.81922844
3738,6791184.0
2,7, 1, 7, 0,21, 0.00,60.00,Saturday
135,48904615.70955593
3420,48904615.70955593
3738,6791184.0
2,7, 1, 7, 0,22, 0.00,60.00,Saturday
135,48904615.70955593
3420,48904615.70955593
3738,6791184.0
2,7, 1, 7, 0,23, 0.00,60.00,Saturday
135,48904615.70955593
3420,48904615.70955593
3738,6791184.0
2,7, 1, 7, 0,24, 0.00,60.00,Saturday
135,48904615.70955593
3420,48904615.70955593
3738,6791184.0
2,8, 1, 8, 0, 1, 0.00,60.00,Sunday
135,46359235.70955593
3420,46359235.709555924
3738,6791184.0
2,8, 1, 8, 0, 2, 0.00,60.00,Sunday
135,46359235.70955593
3420,46359235.709555924
3738,6791184.0
2,8, 1, 8, 0, 3, 0.00,60.00,Sunday
135,46359235.70955593
3420,46359235.709555924
3738,6791184.0
2,8, 1, 8, 0, 4, 0.00,60.00,Sunday
135,46359235.70955593
3420,46359235.709555924
3738,6791184.0
2,8, 1, 8, 0, 5, 0.00,60.00,Sunday
135,46359235.70955593
3420,46359235.709555924
3738,6791184.0
2,8, 1, 8, 0, 6, 0.00,60.00,Sunday
135,46359235.70955593
3420,46359235.709555924
3738,6791184.0
2,8, 1, 8, 0, 7, 0.00,60.00,Sunday
135,66032185.73006148
3420,66032185.73006148
3738,6791184.0
2,8, 1, 8, 0, 8, 0.00,60.00,Sunday
135,53323580.330645084
3420,53323580.330645084
3738,6791184.0
2,8, 1, 8, 0, 9, 0.00,60.00,Sunday
135,46344166.24829911
3420,46344166.24829911
3738,6791184.0
2,8, 1, 8, 0,10, 0.00,60.00,Sunday
135,46288812.51597283
3420,46288812.51597283
3738,6791184.0
2,8, 1, 8, 0,11, 0.00,60.00,Sunday
135,47488242.04473852
3420,47488242.044738516
3738,6791184.0
2,8, 1, 8, 0,12, 0.00,60.00,Sunday
135,52943423.04399349
3420,52943423.0439935
3738,6791184.0
2,8, 1, 8, 0,13, 0.00,60.00,Sunday
135,55898098.22819249
3420,55898098.22819249
3738,6791184.0
2,8, 1, 8, 0,14, 0.00,60.00,Sunday
135,60359436.54917853
3420,60359436.54917854
3738,6791184.0
2,8, 1, 8, 0,15, 0.00,60.00,Sunday
135,63108213.50655438
3420,63108213.50655438
3738,6791184.0
2,8, 1, 8, 0,16, 0.00,60.00,Sunday
135,62301559.98070882
3420,62301559.98070883
3738,6791184.0
2,8, 1, 8, 0,17, 0.00,60.00,Sunday
135,58598039.9143221
3420,58598039.91432211
3738,6791184.0
2,8, 1, 8, 0,18, 0.00,60.00,Sunday
135,66276671.30593526
3420,66276671.30593526
3738,6791184.0
2,8, 1, 8, 0,19, 0.00,60.00,Sunday
135,57105773.81922845
3420,57105773.81922844
3738,6791184.0
2,8, 1, 8, 0,20, 0.00,60.00,Sunday
135,48904615.70955593
3420,48904615.70955593
3738,6791184.0
2,8, 1, 8, 0,21, 0.00,60.00,Sunday
135,48904615.70955593
3420,48904615.70955593
3738,6791184.0
2,8, 1, 8, 0,22, 0.00,60.00,Sunday
135,48904615.70955593
3420,48904615.70955593
3738,6791184.0
2,8, 1, 8, 0,23, 0.00,60.00,Sunday
135,48904615.70955593
3420,48904615.70955593
3738,6791184.0
2,8, 1, 8, 0,24, 0.00,60.00,Sunday
135,48904615.70955593
3420,48904615.70955593
3738,6791184.0
2,9, 1, 9, 0, 1, 0.00,60.00,Monday
135,57609860.1137362
3420,57609860.1137362
3738,6791184.0
2,9, 1, 9, 0, 2, 0.00,60.00,Monday
135,57609860.1137362
3420,57609860.1137362
3738,6791184.0
2,9, 1, 9, 0, 3, 0.00,60.00,Monday
135,57609860.1137362
3420,57609860.1137362
3738,6791184.0
2,9, 1, 9, 0, 4, 0.00,60.00,Monday
135,57609860.1137362
3420,57609860.1137362
3738,6791184.0
2,9, 1, 9, 0, 5, 0.00,60.00,Monday
135,57609860.1137362
3420,57609860.1137362
3738,6791184.0
2,9, 1, 9, 0, 6, 0.00,60.00,Monday
135,57609860.1137362
3420,57609860.1137362
3738,6791184.0
2,9, 1, 9, 0, 7, 0.00,60.00,Monday
135,117693105.66862398
3420,117693105.66862398
3738,6791184.0
2,9, 1, 9, 0, 8, 0.00,60.00,Monday
135,203938016.53072152
3420,203938016.5307215
3738,115054957.76811329
2,9, 1, 9, 0, 9, 0.00,60.00,Monday
135,313758933.4461665
3420,313758933.44616646
3738,69089186.54572652
2,9, 1, 9, 0,10, 0.00,60.00,Monday
135,276379634.2538265
3420,276379634.25382644
3738,39866859.3964832
2,9, 1, 9, 0,11, 0.00,60.00,Monday
135,274992135.02302384
3420,274992135.0230238
3738,10651140.906153513
2,9, 1, 9, 0,12, 0.00,60.00,Monday
135,293624195.02229816
3420,293624195.0222981
3738,20903860.421045817
2,9, 1, 9, 0,13, 0.00,60.00,Monday
135,295112637.6042048
3420,295112637.6042048
3738,31373556.147425167
2,9, 1, 9, 0,14, 0.00,60.00,Monday
135,313607110.8630182
3420,313607110.86301816
3738,26214141.549778417
2,9, 1, 9, 0,15, 0.00,60.00,Monday
135,308851538.98701125
3420,308851538.9870112
3738,20131455.258970756
2,9, 1, 9, 0,16, 0.00,60.00,Monday
135,317940229.4218023
3420,317940229.4218023
3738,15659072.905587625
2,9, 1, 9, 0,17, 0.00,60.00,Monday
135,327429323.78108585
3420,327429323.7810858
3738,25336382.186766908
2,9, 1, 9, 0,18, 0.00,60.00,Monday
135,243671631.59380692
3420,243671631.59380692
3738,11102214.683248725
2,9, 1, 9, 0,19, 0.00,60.00,Monday
135,131976402.15412965
3420,131976402.15412965
3738,24347483.10508038
2,9, 1, 9, 0,20, 0.00,60.00,Monday
135,113569604.38930234
3420,113569604.38930234
3738,32472589.962338824
2,9, 1, 9, 0,21, 0.00,60.00,Monday
135,102981097.39345543
3420,102981097.39345543
3738,23903336.41492959
2,9, 1, 9, 0,22, 0.00,60.00,Monday
135,99246079.89042382
3420,99246079.89042382
3738,31463395.45983071
2,9, 1, 9, 0,23, 0.00,60.00,Monday
135,77772390.65670998
3420,77772390.65670998
3738,6791184.0
2,9, 1, 9, 0,24, 0.00,60.00,Monday
135,72442274.24247962
3420,72442274.24247962
3738,6791184.0
2,10, 1,10, 0, 1, 0.00,60.00,Tuesday
135,57996196.7332391
3420,57996196.7332391
3738,6791184.0
2,10, 1,10, 0, 2, 0.00,60.00,Tuesday
135,57609860.1137362
3420,57609860.1137362
3738,6791184.0
2,10, 1,10, 0, 3, 0.00,60.00,Tuesday
135,57609860.1137362
3420,57609860.1137362
3738,6791184.0
2,10, 1,10, 0, 4, 0.00,60.00,Tuesday
135,57609860.1137362
3420,57609860.1137362
3738,6791184.0
2,10, 1,10, 0, 5, 0.00,60.00,Tuesday
135,57609860.1137362
3420,57609860.1137362
3738,6791184.0
2,10, 1,10, 0, 6, 0.00,60.00,Tuesday
135,57609860.1137362
3420,57609860.1137362
3738,6791184.0
2,10, 1,10, 0, 7, 0.00,60.00,Tuesday
135,109919180.58204348
3420,109919180.58204348
3738,6791184.0
2,10, 1,10, 0, 8, 0.00,60.00,Tuesday
135,189335012.3596327
3420,189335012.3596327
3738,147894866.71663406
2,10, 1,10, 0, 9, 0.00,60.00,Tuesday
135,308333249.6334191
3420,308333249.6334191
3738,94900379.79330197
2,10, 1,10, 0,10, 0.00,60.00,Tuesday
135,270082845.971728
3420,270082845.97172797
3738,73457958.33748719
2,10, 1,10, 0,11, 0.00,60.00,Tuesday
135,262664152.3449474
3420,262664152.34494737
3738,63087490.40692415
2,10, 1,10, 0,12, 0.00,60.00,Tuesday
135,272435303.5665654
3420,272435303.5665654
3738,73805082.08177742
2,10, 1,10, 0,13, 0.00,60.00,Tuesday
135,290179159.1436443
3420,290179159.1436442
3738,55203817.12038581
2,10, 1,10, 0,14, 0.00,60.00,Tuesday
135,288850229.2060017
3420,288850229.2060017
3738,34511003.44989021
2,10, 1,10, 0,15, 0.00,60.00,Tuesday
135,281408051.06862336
3420,281408051.06862336
3738,16177450.457251072
2,10, 1,10, 0,16, 0.00,60.00,Tuesday
135,283386082.73536366
3420,283386082.7353635
3738,17331156.8870482
2,10, 1,10, 0,17, 0.00,60.00,Tuesday
135,295280299.3347405
3420,295280299.3347405
3738,23588349.702820882
2,10, 1,10, 0,18, 0.00,60.00,Tuesday
135,250684979.34001118
3420,250684979.34001118
3738,37745101.97785788
2,10, 1,10, 0,19, 0.00,60.00,Tuesday
135,130977060.90280816
3420,130977060.90280816
3738,77141244.19957258
2,10, 1,10, 0,20, 0.00,60.00,Tuesday
135,113574706.76609223
3420,113574706.76609223
3738,81299994.76253283
2,10, 1,10, 0,21, 0.00,60.00,Tuesday
135,103903575.66352937
3420,103903575.66352937
3738,90850312.69184738
2,10, 1,10, 0,22, 0.00,60.00,Tuesday
135,102149411.99925148
3420,102149411.99925151
3738,103758910.03555834
2,10, 1,10, 0,23, 0.00,60.00,Tuesday
135,77772390.65670998
3420,77772390.65670998
3738,6791184.0
2,10, 1,10, 0,24, 0.00,60.00,Tuesday
135,72442274.24247962
3420,72442274.24247962
3738,6791184.0
2,11, 1,11, 0, 1, 0.00,60.00,Wednesday
135,57996196.7332391
3420,57996196.7332391
3738,6791184.0
2,11, 1,11, 0, 2, 0.00,60.00,Wednesday
135,57609860.1137362
3420,57609860.1137362
3738,6791184.0
2,11, 1,11, 0, 3, 0.00,60.00,Wednesday
135,57609860.1137362
3420,57609860.1137362
3738,6791184.0
2,11, 1,11, 0, 4, 0.00,60.00,Wednesday
135,57609860.1137362
3420,57609860.1137362
3738,6791184.0
2,11, 1,11, 0, 5, 0.00,60.00,Wednesday
135,57609860.1137362
3420,57609860.1137362
3738,6791184.0
2,11, 1,11, 0, 6, 0.00,60.00,Wednesday
135,57609860.1137362
3420,57609860.1137362
3738,6791184.0
2,11, 1,11, 0, 7, 0.00,60.00,Wednesday
135,107050730.34853204
3420,107050730.34853204
3738,6791184.0
2,11, 1,11, 0, 8, 0.00,60.00,Wednesday
135,185915045.42004037
3420,185915045.42004037
3738,89380250.40011017
2,11, 1,11, 0, 9, 0.00,60.00,Wednesday
135,303916996.3006461
3420,303916996.3006461
3738,61801415.79341037
2,11, 1,11, 0,10, 0.00,60.00,Wednesday
135,267509170.1893949
3420,267509170.18939486
3738,47163092.84347672
2,11, 1,11, 0,11, 0.00,60.00,Wednesday
135,261929622.58479416
3420,261929622.58479407
3738,19465027.91342834
2,11, 1,11, 0,12, 0.00,60.00,Wednesday
135,270658125.53531796
3420,270658125.53531796
3738,29161252.3742784
2,11, 1,11, 0,13, 0.00,60.00,Wednesday
135,274870019.51000744
3420,274870019.51000744
3738,41447270.091289006
2,11, 1,11, 0,14, 0.00,60.00,Wednesday
135,274125787.1755504
3420,274125787.1755504
3738,30361351.26532373
2,11, 1,11, 0,15, 0.00,60.00,Wednesday
135,260007896.69656396
3420,260007896.6965639
3738,22224060.866559632
2,11, 1,11, 0,16, 0.00,60.00,Wednesday
135,260321235.4644656
3420,260321235.4644656
3738,27431964.65743063
2,11, 1,11, 0,17, 0.00,60.00,Wednesday
135,277444474.36028373
3420,277444474.3602837
3738,56132365.739901125
2,11, 1,11, 0,18, 0.00,60.00,Wednesday
135,242029439.46949878
3420,242029439.46949875
3738,60570351.08515334
2,11, 1,11, 0,19, 0.00,60.00,Wednesday
135,131738788.10025495
3420,131738788.10025495
3738,88587644.2487246
2,11, 1,11, 0,20, 0.00,60.00,Wednesday
135,113790645.49810544
3420,113790645.49810544
3738,97834057.00135173
2,11, 1,11, 0,21, 0.00,60.00,Wednesday
135,104900868.48464338
3420,104900868.4846434
3738,97417356.01559056
2,11, 1,11, 0,22, 0.00,60.00,Wednesday
135,102562735.68848068
3420,102562735.6884807
3738,108109029.0393208
2,11, 1,11, 0,23, 0.00,60.00,Wednesday
135,77772390.65670998
3420,77772390.65670998
3738,6791184.0
2,11, 1,11, 0,24, 0.00,60.00,Wednesday
135,72442274.24247962
3420,72442274.24247962
3738,6791184.0
2,12, 1,12, 0, 1, 0.00,60.00,Thursday
135,57996196.7332391
3420,57996196.7332391
3738,6791184.0
2,12, 1,12, 0, 2, 0.00,60.00,Thursday
135,57609860.1137362
3420,57609860.1137362
3738,6791184.0
2,12, 1,12, 0, 3, 0.00,60.00,Thursday
135,57609860.1137362
3420,57609860.1137362
3738,6791184.0
2,12, 1,12, 0, 4, 0.00,60.00,Thursday
135,57609860.1137362
3420,57609860.1137362
3738,6791184.0
2,12, 1,12, 0, 5, 0.00,60.00,Thursday
135,57609860.1137362
3420,57609860.1137362
3738,6791184.0
2,12, 1,12, 0, 6, 0.00,60.00,Thursday
135,57609860.1137362
3420,57609860.1137362
3738,6791184.0
2,12, 1,12, 0, 7, 0.00,60.00,Thursday
135,110903921.85818988
3420,110903921.85818988
3738,6791184.0
2,12, 1,12, 0, 8, 0.00,60.00,Thursday
135,192129486.53449804
3420,192129486.53449807
3738,138054845.06415352
2,12, 1,12, 0, 9, 0.00,60.00,Thursday
135,310902730.53248024
3420,310902730.53248024
3738,89853616.19061475
2,12, 1,12, 0,10, 0.00,60.00,Thursday
135,268949671.23441154
3420,268949671.23441154
3738,77448053.66462162
2,12, 1,12, 0,11, 0.00,60.00,Thursday
135,262603258.26616764
3420,262603258.26616758
3738,61029402.51075557
2,12, 1,12, 0,12, 0.00,60.00,Thursday
135,274736230.1658455
3420,274736230.1658455
3738,54996845.4768908
2,12, 1,12, 0,13, 0.00,60.00,Thursday
135,293399859.28692436
3420,293399859.28692436
3738,47201904.739637345
2,12, 1,12, 0,14, 0.00,60.00,Thursday
135,285529362.9332687
3420,285529362.93326867
3738,41934359.319404624
2,12, 1,12, 0,15, 0.00,60.00,Thursday
135,270008112.21073073
3420,270008112.21073073
3738,23590536.14440781
2,12, 1,12, 0,16, 0.00,60.00,Thursday
135,269818116.444274
3420,269818116.44427395
3738,31497493.933001228
2,12, 1,12, 0,17, 0.00,60.00,Thursday
135,288414770.90676564
3420,288414770.90676564
3738,39486706.34041747
2,12, 1,12, 0,18, 0.00,60.00,Thursday
135,250281737.79552087
3420,250281737.79552087
3738,53815784.93254852
2,12, 1,12, 0,19, 0.00,60.00,Thursday
135,133442724.86468875
3420,133442724.86468875
3738,80167447.40867019
2,12, 1,12, 0,20, 0.00,60.00,Thursday
135,113665670.79035155
3420,113665670.79035155
3738,77702067.96036288
2,12, 1,12, 0,21, 0.00,60.00,Thursday
135,104663472.0513533
3420,104663472.05135334
3738,81395290.9818052
2,12, 1,12, 0,22, 0.00,60.00,Thursday
135,101840558.14868513
3420,101840558.14868513
3738,83813549.53935148
2,12, 1,12, 0,23, 0.00,60.00,Thursday
135,77772390.65670998
3420,77772390.65670998
3738,6791184.0
2,12, 1,12, 0,24, 0.00,60.00,Thursday
135,72442274.24247962
3420,72442274.24247962
3738,6791184.0
2,13, 1,13, 0, 1, 0.00,60.00,Friday
135,57996196.7332391
3420,57996196.7332391
3738,6791184.0