Program Version,EnergyPlus, Version 9.6.0-f420c06a69, YMD=2022.07.16 14:51
1,5,Environment Title[],Latitude[deg],Longitude[deg],Time Zone[],Elevation[m]
2,8,Day of Simulation[],Month[],Day of Month[],DST Indicator[1=yes 0=no],Hour[],StartMinute[],EndMinute[],DayType
3,5,Cumulative Day of Simulation[],Month[],Day of Month[],DST Indicator[1=yes 0=no],DayType  ! When Daily Meters Requested
4,2,Cumulative Days of Simulation[],Month[]  ! When Monthly Meters Requested
5,1,Cumulative Days of Simulation[] ! When Run Period Meters Requested
6,1,Calendar Year of Simulation[] ! When Annual Meters Requested
135,1,Electricity:Facility [J] !Hourly
3420,1,ElectricityNet:Facility [J] !Hourly
3738,1,NaturalGas:Facility [J] !Hourly
End of Data Dictionary
1,RUNPERIOD 1,  35.04,-106.62,  -7.00,1619.00
2,1, 1, 1, 0, 1, 0.00,60.00,Holiday
135,46359074.93593144
3420,46359074.93593143
3738,6791184.0
2,1, 1, 1, 0, 2, 0.00,60.00,Holiday
135,46359235.70955593
3420,46359235.709555924
3738,6791184.0
2,1, 1, 1, 0, 3, 0.00,60.00,Holiday
135,46359235.70955593
3420,46359235.709555924
3738,6791184.0
2,1, 1, 1, 0, 4, 0.00,60.00,Holiday
135,46359235.70955593
3420,46359235.709555924
3738,6791184.0
2,1, 1, 1, 0, 5, 0.00,60.00,Holiday
135,46359235.70955593
3420,46359235.709555924
3738,6791184.0
2,1, 1, 1, 0, 6, 0.00,60.00,Holiday
135,46359235.70955593
3420,46359235.709555924
3738,6791184.0
2,1, 1, 1, 0, 7, 0.00,60.00,Holiday
135,66032185.73006148
3420,66032185.73006148
3738,6791184.0
2,1, 1, 1, 0, 8, 0.00,60.00,Holiday
135,50074623.774579875
3420,50074623.774579875
3738,6791184.0
2,1, 1, 1, 0, 9, 0.00,60.00,Holiday
135,46351708.9331394
3420,46351708.9331394
3738,6791184.0
2,1, 1, 1, 0,10, 0.00,60.00,Holiday
135,46288813.17904917
3420,46288813.179049164
3738,6791184.0
2,1, 1, 1, 0,11, 0.00,60.00,Holiday
135,51149014.50787013
3420,51149014.50787013
3738,6791184.0
2,1, 1, 1, 0,12, 0.00,60.00,Holiday
135,53542591.30173427
3420,53542591.30173427
3738,6791184.0
2,1, 1, 1, 0,13, 0.00,60.00,Holiday
135,54827857.64153222
3420,54827857.64153222
3738,6791184.0
2,1, 1, 1, 0,14, 0.00,60.00,Holiday
135,61196507.52122828
3420,61196507.5212283
3738,6791184.0
2,1, 1, 1, 0,15, 0.00,60.00,Holiday
135,67239153.60782859
3420,67239153.60782859
3738,6791184.0
2,1, 1, 1, 0,16, 0.00,60.00,Holiday
135,64721412.807741076
3420,64721412.80774109
3738,6791184.0
2,1, 1, 1, 0,17, 0.00,60.00,Holiday
135,55473596.479658276
3420,55473596.479658276
3738,6791184.0
2,1, 1, 1, 0,18, 0.00,60.00,Holiday
135,66905826.86107348
3420,66905826.86107348
3738,6791184.0
2,1, 1, 1, 0,19, 0.00,60.00,Holiday
135,57105773.81922845
3420,57105773.81922844
3738,6791184.0
2,1, 1, 1, 0,20, 0.00,60.00,Holiday
135,48904615.70955593
3420,48904615.70955593
3738,6791184.0
2,1, 1, 1, 0,21, 0.00,60.00,Holiday
135,48904615.70955593
3420,48904615.70955593
3738,6791184.0
2,1, 1, 1, 0,22, 0.00,60.00,Holiday
135,48904615.70955593
3420,48904615.70955593
3738,6791184.0
2,1, 1, 1, 0,23, 0.00,60.00,Holiday
135,48904615.70955593
3420,48904615.70955593
3738,6791184.0
2,1, 1, 1, 0,24, 0.00,60.00,Holiday
135,48904615.70955593
3420,48904615.70955593
3738,6791184.0
2,2, 1, 2, 0, 1, 0.00,60.00,Monday
135,57609860.1137362
3420,57609860.1137362
3738,6791184.0
2,2, 1, 2, 0, 2, 0.00,60.00,Monday
135,57609860.1137362
3420,57609860.1137362
3738,6791184.0
2,2, 1, 2, 0, 3, 0.00,60.00,Monday
135,57609860.1137362
3420,57609860.1137362
3738,6791184.0
2,2, 1, 2, 0, 4, 0.00,60.00,Monday
135,57609860.1137362
3420,57609860.1137362
3738,6791184.0
2,2, 1, 2, 0, 5, 0.00,60.00,Monday
135,57609860.1137362
3420,57609860.1137362
3738,6791184.0
2,2, 1, 2, 0, 6, 0.00,60.00,Monday
135,57609860.1137362
3420,57609860.1137362
3738,6791184.0
2,2, 1, 2, 0, 7, 0.00,60.00,Monday
135,127996825.63454857
3420,127996825.63454857
3738,6791184.0
2,2, 1, 2, 0, 8, 0.00,60.00,Monday
135,215776918.25572556
3420,215776918.25572553
3738,138020718.205081
2,2, 1, 2, 0, 9, 0.00,60.00,Monday
135,308779831.98790205
3420,308779831.98790205
3738,82873177.66038454
2,2, 1, 2, 0,10, 0.00,60.00,Monday
135,272391633.6877966
3420,272391633.68779653
3738,53951717.89646106
2,2, 1, 2, 0,11, 0.00,60.00,Monday
135,270626858.73905873
3420,270626858.73905873
3738,16290746.029742379
2,2, 1, 2, 0,12, 0.00,60.00,Monday
135,289695713.59204376
3420,289695713.59204376
3738,20876788.629584327
2,2, 1, 2, 0,13, 0.00,60.00,Monday
135,291132855.59700644
3420,291132855.59700644
3738,31334466.06780298
2,2, 1, 2, 0,14, 0.00,60.00,Monday
135,308021486.08789706
3420,308021486.08789706
3738,26165957.600102253
2,2, 1, 2, 0,15, 0.00,60.00,Monday
135,301222934.61526537
3420,301222934.6152653
3738,16608219.527592774
2,2, 1, 2, 0,16, 0.00,60.00,Monday
135,306260640.67507416
3420,306260640.67507416
3738,19132384.55082509
2,2, 1, 2, 0,17, 0.00,60.00,Monday
135,303775473.3403636
3420,303775473.34036356
3738,20696667.15605069
2,2, 1, 2, 0,18, 0.00,60.00,Monday
135,238144633.47194412
3420,238144633.4719441
3738,19995254.898005724
2,2, 1, 2, 0,19, 0.00,60.00,Monday
135,130915817.59055667
3420,130915817.59055667
3738,46965666.73843971
2,2, 1, 2, 0,20, 0.00,60.00,Monday
135,114591120.3768551
3420,114591120.3768551
3738,60485811.603654675
2,2, 1, 2, 0,21, 0.00,60.00,Monday
135,105863576.09982648
3420,105863576.09982648
3738,74237317.72791636
2,2, 1, 2, 0,22, 0.00,60.00,Monday
135,103011114.57527736
3420,103011114.57527736
3738,75836107.61545125
2,2, 1, 2, 0,23, 0.00,60.00,Monday
135,77772390.65670998
3420,77772390.65670998
3738,6791184.0
2,2, 1, 2, 0,24, 0.00,60.00,Monday
135,72442274.24247962
3420,72442274.24247962
3738,6791184.0
2,3, 1, 3, 0, 1, 0.00,60.00,Tuesday
135,57996196.7332391
3420,57996196.7332391
3738,6791184.0
2,3, 1, 3, 0, 2, 0.00,60.00,Tuesday
135,57609860.1137362
3420,57609860.1137362
3738,6791184.0
2,3, 1, 3, 0, 3, 0.00,60.00,Tuesday
135,57609860.1137362
3420,57609860.1137362
3738,6791184.0
2,3, 1, 3, 0, 4, 0.00,60.00,Tuesday
135,57609860.1137362
3420,57609860.1137362
3738,6791184.0
2,3, 1, 3, 0, 5, 0.00,60.00,Tuesday
135,57609860.1137362
3420,57609860.1137362
3738,6791184.0
2,3, 1, 3, 0, 6, 0.00,60.00,Tuesday
135,57609860.1137362
3420,57609860.1137362
3738,6791184.0
2,3, 1, 3, 0, 7, 0.00,60.00,Tuesday
135,106931257.37472215
3420,106931257.37472212
3738,6791184.0
2,3, 1, 3, 0, 8, 0.00,60.00,Tuesday
135,184734841.1423446
3420,184734841.1423446
3738,120832959.7297068
2,3, 1, 3, 0, 9, 0.00,60.00,Tuesday
135,312265575.62436616
3420,312265575.62436616
3738,68892671.80928904
2,3, 1, 3, 0,10, 0.00,60.00,Tuesday
135,279812349.24392164
3420,279812349.24392164
3738,27777781.23698724
2,3, 1, 3, 0,11, 0.00,60.00,Tuesday
135,278334900.0313619
3420,278334900.0313619
3738,9295933.261404604
2,3, 1, 3, 0,12, 0.00,60.00,Tuesday
135,290684622.63813865
3420,290684622.63813865
3738,23542259.622301124
2,3, 1, 3, 0,13, 0.00,60.00,Tuesday
135,290073427.60944575
3420,290073427.60944575
3738,31314670.33408197
2,3, 1, 3, 0,14, 0.00,60.00,Tuesday
135,311174944.21262676
3420,311174944.21262676
3738,26173987.99966827
2,3, 1, 3, 0,15, 0.00,60.00,Tuesday
135,304966823.9567958
3420,304966823.95679575
3738,20136318.258841217
2,3, 1, 3, 0,16, 0.00,60.00,Tuesday
135,309054752.76813424
3420,309054752.7681342
3738,15643327.510827746
2,3, 1, 3, 0,17, 0.00,60.00,Tuesday
135,309940042.67176265
3420,309940042.67176265
3738,20680908.056054913
2,3, 1, 3, 0,18, 0.00,60.00,Tuesday
135,242680258.7493111
3420,242680258.7493111
3738,16251871.944199989
2,3, 1, 3, 0,19, 0.00,60.00,Tuesday
135,132069713.17156494
3420,132069713.17156494
3738,26106541.95556266
2,3, 1, 3, 0,20, 0.00,60.00,Tuesday
135,113569604.38930234
3420,113569604.38930234
3738,44462398.210499495
2,3, 1, 3, 0,21, 0.00,60.00,Tuesday
135,102910895.06207252
3420,102910895.06207252
3738,53926673.13748605
2,3, 1, 3, 0,22, 0.00,60.00,Tuesday
135,98770175.473992
3420,98770175.47399203
3738,83388411.44147202
2,3, 1, 3, 0,23, 0.00,60.00,Tuesday
135,77772390.65670998
3420,77772390.65670998
3738,6791184.0
2,3, 1, 3, 0,24, 0.00,60.00,Tuesday
135,72442274.24247962
3420,72442274.24247962
3738,6791184.0
2,4, 1, 4, 0, 1, 0.00,60.00,Wednesday
135,57996196.7332391
3420,57996196.7332391
3738,6791184.0
2,4, 1, 4, 0, 2, 0.00,60.00,Wednesday
135,57609860.1137362
3420,57609860.1137362
3738,6791184.0
2,4, 1, 4, 0, 3, 0.00,60.00,Wednesday
135,57609860.1137362
3420,57609860.1137362
3738,6791184.0
2,4, 1, 4, 0, 4, 0.00,60.00,Wednesday
135,57609860.1137362
3420,57609860.1137362
3738,6791184.0
2,4, 1, 4, 0, 5, 0.00,60.00,Wednesday
135,57609860.1137362
3420,57609860.1137362
3738,6791184.0
2,4, 1, 4, 0, 6, 0.00,60.00,Wednesday
135,57609860.1137362
3420,57609860.1137362
3738,6791184.0
2,4, 1, 4, 0, 7, 0.00,60.00,Wednesday
135,103755454.93082415
3420,103755454.93082415
3738,6791184.0
2,4, 1, 4, 0, 8, 0.00,60.00,Wednesday
135,184491004.4643848
3420,184491004.4643848
3738,139683752.67577988
2,4, 1, 4, 0, 9, 0.00,60.00,Wednesday
135,309257276.77714854
3420,309257276.7771486
3738,83095029.78652705
2,4, 1, 4, 0,10, 0.00,60.00,Wednesday
135,272185113.924669
3420,272185113.924669
3738,54652377.40591665
2,4, 1, 4, 0,11, 0.00,60.00,Wednesday
135,266550562.08486056
3420,266550562.0848605
3738,34899162.16140272
2,4, 1, 4, 0,12, 0.00,60.00,Wednesday
135,281292242.9374631
3420,281292242.937463
3738,23607985.38142342
2,4, 1, 4, 0,13, 0.00,60.00,Wednesday
135,285973572.2964015
3420,285973572.29640144
3738,31348798.230013758
2,4, 1, 4, 0,14, 0.00,60.00,Wednesday
135,292517489.6756735
3420,292517489.6756735
3738,26188383.070569854
2,4, 1, 4, 0,15, 0.00,60.00,Wednesday
135,278936139.3508474
3420,278936139.3508474
3738,20127398.59969132
2,4, 1, 4, 0,16, 0.00,60.00,Wednesday
135,276955145.5425564
3420,276955145.54255635
3738,15653031.314340789
2,4, 1, 4, 0,17, 0.00,60.00,Wednesday
135,295961521.3481208
3420,295961521.34812075
3738,25318407.256185487
2,4, 1, 4, 0,18, 0.00,60.00,Wednesday
135,249790251.11624223
3420,249790251.11624217
3738,14864476.667762557
2,4, 1, 4, 0,19, 0.00,60.00,Wednesday
135,132103039.86723197
3420,132103039.86723197
3738,28501881.551320106
2,4, 1, 4, 0,20, 0.00,60.00,Wednesday
135,113569604.38930234
3420,113569604.38930234
3738,41762766.323415086
2,4, 1, 4, 0,21, 0.00,60.00,Wednesday
135,102910895.06207252
3420,102910895.06207252
3738,55301881.79344201
2,4, 1, 4, 0,22, 0.00,60.00,Wednesday
135,98267997.61519502
3420,98267997.61519504
3738,67012577.12525496
2,4, 1, 4, 0,23, 0.00,60.00,Wednesday
135,77772390.65670998
3420,77772390.65670998
3738,6791184.0
2,4, 1, 4, 0,24, 0.00,60.00,Wednesday
135,72442274.24247962
3420,72442274.24247962
3738,6791184.0
2,5, 1, 5, 0, 1, 0.00,60.00,Thursday
135,57996196.7332391
3420,57996196.7332391
3738,6791184.0
2,5, 1, 5, 0, 2, 0.00,60.00,Thursday
135,57609860.1137362
3420,57609860.1137362
3738,6791184.0
2,5, 1, 5, 0, 3, 0.00,60.00,Thursday
135,57609860.1137362
3420,57609860.1137362
3738,6791184.0
2,5, 1, 5, 0, 4, 0.00,60.00,Thursday
135,57609860.1137362
3420,57609860.1137362
3738,6791184.0
2,5, 1, 5, 0, 5, 0.00,60.00,Thursday
135,57609860.1137362
3420,57609860.1137362
3738,6791184.0
2,5, 1, 5, 0, 6, 0.00,60.00,Thursday
135,57609860.1137362
3420,57609860.1137362
3738,6791184.0
2,5, 1, 5, 0, 7, 0.00,60.00,Thursday
135,97730645.7443002
3420,97730645.74430022
3738,6791184.0
2,5, 1, 5, 0, 8, 0.00,60.00,Thursday
135,173087544.1641276
3420,173087544.1641276
3738,110825138.57326624
2,5, 1, 5, 0, 9, 0.00,60.00,Thursday
135,311211990.19226384
3420,311211990.19226384
3738,58779894.10005998
2,5, 1, 5, 0,10, 0.00,60.00,Thursday
135,280669763.8576685
3420,280669763.8576685
3738,15372537.539269945
2,5, 1, 5, 0,11, 0.00,60.00,Thursday
135,279883421.5661143
3420,279883421.5661143
3738,11332836.280034663
2,5, 1, 5, 0,12, 0.00,60.00,Thursday
135,292301208.05422914
3420,292301208.05422914
3738,20890598.08476951
2,5, 1, 5, 0,13, 0.00,60.00,Thursday
135,295429347.08081615
3420,295429347.08081615
3738,31321004.389231294
2,5, 1, 5, 0,14, 0.00,60.00,Thursday
135,319302060.3590406
3420,319302060.3590406
3738,26189196.31316529
2,5, 1, 5, 0,15, 0.00,60.00,Thursday
135,312754328.7801004
3420,312754328.7801003
3738,20204811.31468891
2,5, 1, 5, 0,16, 0.00,60.00,Thursday
135,316682004.04225725
3420,316682004.0422572
3738,15641997.07867629
2,5, 1, 5, 0,17, 0.00,60.00,Thursday
135,319428737.55082196
3420,319428737.5508219
3738,25321918.167280644
2,5, 1, 5, 0,18, 0.00,60.00,Thursday
135,245791568.8385596
3420,245791568.8385596
3738,11104752.447238471
2,5, 1, 5, 0,19, 0.00,60.00,Thursday
135,132925660.65163925
3420,132925660.65163925
3738,13891078.459196473
2,5, 1, 5, 0,20, 0.00,60.00,Thursday
135,113569604.38930234
3420,113569604.38930234
3738,28226140.257884137
2,5, 1, 5, 0,21, 0.00,60.00,Thursday
135,102910895.06207252
3420,102910895.06207252
3738,39643654.619638875
2,5, 1, 5, 0,22, 0.00,60.00,Thursday
135,98267997.61519502
3420,98267997.61519504
3738,53727429.904494025
2,5, 1, 5, 0,23, 0.00,60.00,Thursday
135,77772390.65670998
3420,77772390.65670998
3738,6791184.0
2,5, 1, 5, 0,24, 0.00,60.00,Thursday
135,72442274.24247962
3420,72442274.24247962
3738,6791184.0
2,6, 1, 6, 0, 1, 0.00,60.00,Friday
135,57996196.7332391
3420,57996196.7332391
3738,6791184.0
2,6, 1, 6, 0, 2, 0.00,60.00,Friday
135,57609860.1137362
3420,57609860.1137362
3738,6791184.0
2,6, 1, 6, 0, 3, 0.00,60.00,Friday
135,57609860.1137362
3420,57609860.1137362
3738,6791184.0
2,6, 1, 6, 0, 4, 0.00,60.00,Friday
135,57609860.1137362
3420,57609860.1137362
3738,6791184.0
2,6, 1, 6, 0, 5, 0.00,60.00,Friday
135,57609860.1137362
3420,57609860.1137362
3738,6791184.0
2,6, 1, 6, 0, 6, 0.00,60.00,Friday
135,57609860.1137362
3420,57609860.1137362
3738,6791184.0
2,6, 1, 6, 0, 7, 0.00,60.00,Friday
135,100823722.57362385
3420,100823722.57362385
3738,6791184.0
2,6, 1, 6, 0, 8, 0.00,60.00,Friday
135,184928732.1835803
3420,184928732.18358028
3738,114920237.82743731
2,6, 1, 6, 0, 9, 0.00,60.00,Friday
135,311842807.5644234
3420,311842807.5644234
3738,82552542.00360043
2,6, 1, 6, 0,10, 0.00,60.00,Friday
135,270784268.1201516
3420,270784268.1201515
3738,75035270.4943365
2,6, 1, 6, 0,11, 0.00,60.00,Friday
135,263602401.95659363
3420,263602401.95659357
3738,64190541.653113306
2,6, 1, 6, 0,12, 0.00,60.00,Friday
135,282559282.61520034
3420,282559282.61520034
3738,40735054.61626625
2,6, 1, 6, 0,13, 0.00,60.00,Friday
135,291739888.4219376
3420,291739888.4219376
3738,28108265.09748934
2,6, 1, 6, 0,14, 0.00,60.00,Friday
135,308730124.13883805
3420,308730124.13883805
3738,27355776.291714158
2,6, 1, 6, 0,15, 0.00,60.00,Friday
135,301584839.37699807
3420,301584839.376998
3738,19101413.630276874
2,6, 1, 6, 0,16, 0.00,60.00,Friday
135,304744220.5765716
3420,304744220.5765715
3738,15649370.311928522
2,6, 1, 6, 0,17, 0.00,60.00,Friday
135,309570910.71385306
3420,309570910.71385306
3738,25324633.64482969
2,6, 1, 6, 0,18, 0.00,60.00,Friday
135,252020549.09479946
3420,252020549.09479946
3738,46802431.89521818
2,6, 1, 6, 0,19, 0.00,60.00,Friday
135,131479447.34374657
3420,131479447.34374657
3738,71510255.64689735
2,6, 1, 6, 0,20, 0.00,60.00,Friday
135,113569604.38930234
3420,113569604.38930234
3738,75126245.88070315
2,6, 1, 6, 0,21, 0.00,60.00,Friday
135,103702529.75149125
3420,103702529.75149123
3738,92726271.05538811
2,6, 1, 6, 0,22, 0.00,60.00,Friday
135,100520111.43810402
3420,100520111.43810403
3738,91777100.55722721
2,6, 1, 6, 0,23, 0.00,60.00,Friday
135,77772390.65670998
3420,77772390.65670998
3738,6791184.0
2,6, 1, 6, 0,24, 0.00,60.00,Friday
135,72442274.24247962
3420,72442274.24247962
3738,6791184.0
2,7, 1, 7, 0, 1, 0.00,60.00,Saturday
135,46745513.81922844
3420,46745513.81922843
3738,6791184.0
2,7, 1, 7, 0, 2, 0.00,60.00,Saturday
135,46359235.70955593
3420,46359235.709555924
3738,6791184.0
2,7, 1, 7, 0, 3, 0.00,60.00,Saturday
135,46359235.70955593
3420,46359235.709555924
3738,6791184.0
2,7, 1, 7, 0, 4, 0.00,60.00,Saturday
135,46359235.70955593
3420,46359235.709555924
3738,6791184.0
2,7, 1, 7, 0, 5, 0.00,60.00,Saturday
135,46359235.70955593
3420,46359235.709555924
3738,6791184.0
2,7, 1, 7, 0, 6, 0.00,60.00,Saturday
135,46359235.70955593
3420,46359235.709555924
3738,6791184.0
2,7, 1, 7, 0, 7, 0.00,60.00,Saturday
135,110505998.28456506
3420,110505998.28456506
3738,6791184.0
2,7, 1, 7, 0, 8, 0.00,60.00,Saturday
135,138374853.70403066
3420,138374853.70403066
3738,126785617.74135618
2,7, 1, 7, 0, 9, 0.00,60.00,Saturday
135,132835213.33993328
3420,132835213.33993328
3738,108941758.07505533
2,7, 1, 7, 0,10, 0.00,60.00,Saturday
135,135137075.00883284
3420,135137075.00883284
3738,95157294.90452734
2,7, 1, 7, 0,11, 0.00,60.00,Saturday
135,128170587.22354253
3420,128170587.22354253
3738,66903420.62088337
2,7, 1, 7, 0,12, 0.00,60.00,Saturday
135,139076158.14518705
3420,139076158.14518702
3738,28126890.030757762
2,7, 1, 7, 0,13, 0.00,60.00,Saturday
135,98712851.9749594
3420,98712851.9749594
3738,17101978.387715075
2,7, 1, 7, 0,14, 0.00,60.00,Saturday
135,86592787.46379402
3420,86592787.46379404
3738,17666467.5686765
2,7, 1, 7, 0,15, 0.00,60.00,Saturday
135,80777988.06353001
3420,80777988.06353001
3738,14974513.787686907
2,7, 1, 7, 0,16, 0.00,60.00,Saturday
135,76233398.28453368
3420,76233398.28453368
3738,21508591.32244376
2,7, 1, 7, 0,17, 0.00,60.00,Saturday
135,78779518.07473408
3420,78779518.07473409
3738,30335015.214789927
2,7, 1, 7, 0,18, 0.00,60.00,Saturday
135,83077160.33306564
3420,83077160.33306564
3738,45494218.50604899
2,7, 1, 7, 0,19, 0.00,60.00,Saturday
135,66276703.53612528
3420,66276703.53612528
3738,6791184.0
2,7, 1, 7, 0,20, 0.00,60.00,Saturday
135,49290893.81922844
3420,49290893.81922844
3738,6791184.0
2,7, 1, 7, 0,21, 0.00,60.00,Saturday
135,48904615.70955593
3420,48904615.70955593
3738,6791184.0
2,7, 1, 7, 0,22, 0.00,60.00,Saturday
135,48904615.70955593
3420,48904615.70955593
3738,6791184.0
2,7, 1, 7, 0,23, 0.00,60.00,Saturday
135,48904615.70955593
3420,48904615.70955593
3738,6791184.0
2,7, 1, 7, 0,24, 0.00,60.00,Saturday
135,48904615.70955593
3420,48904615.70955593
3738,6791184.0
2,8, 1, 8, 0, 1, 0.00,60.00,Sunday
135,46359235.70955593
3420,46359235.709555924
3738,6791184.0
2,8, 1, 8, 0, 2, 0.00,60.00,Sunday
135,46359235.70955593
3420,46359235.709555924
3738,6791184.0
2,8, 1, 8, 0, 3, 0.00,60.00,Sunday
135,46359235.70955593
3420,46359235.709555924
3738,6791184.0
2,8, 1, 8, 0, 4, 0.00,60.00,Sunday
135,46359235.70955593
3420,46359235.709555924
3738,6791184.0
2,8, 1, 8, 0, 5, 0.00,60.00,Sunday
135,46359235.70955593
3420,46359235.709555924
3738,6791184.0
2,8, 1, 8, 0, 6, 0.00,60.00,Sunday
135,46359235.70955593
3420,46359235.709555924
3738,6791184.0
2,8, 1, 8, 0, 7, 0.00,60.00,Sunday
135,66032185.73006148
3420,66032185.73006148
3738,6791184.0
2,8, 1, 8, 0, 8, 0.00,60.00,Sunday
135,53323580.330645084
3420,53323580.330645084
3738,6791184.0
2,8, 1, 8, 0, 9, 0.00,60.00,Sunday
135,46344166.24829911
3420,46344166.24829911
3738,6791184.0
2,8, 1, 8, 0,10, 0.00,60.00,Sunday
135,46288812.51597283
3420,46288812.51597283
3738,6791184.0
2,8, 1, 8, 0,11, 0.00,60.00,Sunday
135,47492098.97683922
3420,47492098.976839215
3738,6791184.0
2,8, 1, 8, 0,12, 0.00,60.00,Sunday
135,51535349.02512193
3420,51535349.025121935
3738,6791184.0
2,8, 1, 8, 0,13, 0.00,60.00,Sunday
135,54258776.56857008
3420,54258776.56857008
3738,6791184.0
2,8, 1, 8, 0,14, 0.00,60.00,Sunday
135,53722833.2496032
3420,53722833.2496032
3738,6791184.0
2,8, 1, 8, 0,15, 0.00,60.00,Sunday
135,54373787.45661944
3420,54373787.45661945
3738,6791184.0
2,8, 1, 8, 0,16, 0.00,60.00,Sunday
135,54743000.20224595
3420,54743000.20224595
3738,6791184.0
2,8, 1, 8, 0,17, 0.00,60.00,Sunday
135,49567820.198781185
3420,49567820.198781185
3738,6791184.0
2,8, 1, 8, 0,18, 0.00,60.00,Sunday
135,66276671.30593526
3420,66276671.30593526
3738,6791184.0
2,8, 1, 8, 0,19, 0.00,60.00,Sunday
135,57105773.81922845
3420,57105773.81922844
3738,6791184.0
2,8, 1, 8, 0,20, 0.00,60.00,Sunday
135,48904615.70955593
3420,48904615.70955593
3738,6791184.0
2,8, 1, 8, 0,21, 0.00,60.00,Sunday
135,48904615.70955593
3420,48904615.70955593
3738,6791184.0
2,8, 1, 8, 0,22, 0.00,60.00,Sunday
135,48904615.70955593
3420,48904615.70955593
3738,6791184.0
2,8, 1, 8, 0,23, 0.00,60.00,Sunday
135,48904615.70955593
3420,48904615.70955593
3738,6791184.0
2,8, 1, 8, 0,24, 0.00,60.00,Sunday
135,48904615.70955593
3420,48904615.70955593
3738,6791184.0
2,9, 1, 9, 0, 1, 0.00,60.00,Monday
135,57609860.1137362
3420,57609860.1137362
3738,6791184.0
2,9, 1, 9, 0, 2, 0.00,60.00,Monday
135,57609860.1137362
3420,57609860.1137362
3738,6791184.0
2,9, 1, 9, 0, 3, 0.00,60.00,Monday
135,57609860.1137362
3420,57609860.1137362
3738,6791184.0
2,9, 1, 9, 0, 4, 0.00,60.00,Monday
135,57609860.1137362
3420,57609860.1137362
3738,6791184.0
2,9, 1, 9, 0, 5, 0.00,60.00,Monday
135,57609860.1137362
3420,57609860.1137362
3738,6791184.0
2,9, 1, 9, 0, 6, 0.00,60.00,Monday
135,57609860.1137362
3420,57609860.1137362
3738,6791184.0
2,9, 1, 9, 0, 7, 0.00,60.00,Monday
135,125174356.1524242
3420,125174356.15242422
3738,6791184.0
2,9, 1, 9, 0, 8, 0.00,60.00,Monday
135,213293855.92290366
3420,213293855.9229036
3738,128282232.34891877
2,9, 1, 9, 0, 9, 0.00,60.00,Monday
135,314233448.8661667
3420,314233448.8661667
3738,77605778.79164818
2,9, 1, 9, 0,10, 0.00,60.00,Monday
135,275325776.0694189
3420,275325776.06941885
3738,50838458.43391745
2,9, 1, 9, 0,11, 0.00,60.00,Monday
135,272122940.4046371
3420,272122940.4046371
3738,15788294.941146325
2,9, 1, 9, 0,12, 0.00,60.00,Monday
135,290747891.57389694
3420,290747891.5738969
3738,20903859.6127136
2,9, 1, 9, 0,13, 0.00,60.00,Monday
135,292893116.84195244
3420,292893116.8419524
3738,31355574.564275023
2,9, 1, 9, 0,14, 0.00,60.00,Monday
135,310083091.6243707
3420,310083091.6243707
3738,26214925.88870135
2,9, 1, 9, 0,15, 0.00,60.00,Monday
135,305311065.5043557
3420,305311065.5043557
3738,20131558.289594743
2,9, 1, 9, 0,16, 0.00,60.00,Monday
135,314426193.646582
3420,314426193.64658195
3738,15659346.847247599
2,9, 1, 9, 0,17, 0.00,60.00,Monday
135,324349855.0773524
3420,324349855.07735234
3738,25336255.16476394
2,9, 1, 9, 0,18, 0.00,60.00,Monday
135,243087176.0441586
3420,243087176.04415858
3738,11358595.343229704
2,9, 1, 9, 0,19, 0.00,60.00,Monday
135,131934130.95341715
3420,131934130.95341715
3738,25984749.992358617
2,9, 1, 9, 0,20, 0.00,60.00,Monday
135,113569604.38930234
3420,113569604.38930234
3738,33704856.44425469
2,9, 1, 9, 0,21, 0.00,60.00,Monday
135,103344338.35764846
3420,103344338.35764846
3738,23774788.980706107
2,9, 1, 9, 0,22, 0.00,60.00,Monday
135,99844142.7437973
3420,99844142.74379733
3738,30362615.015839856
2,9, 1, 9, 0,23, 0.00,60.00,Monday
135,77772390.65670998
3420,77772390.65670998
3738,6791184.0
2,9, 1, 9, 0,24, 0.00,60.00,Monday
135,72442274.24247962
3420,72442274.24247962
3738,6791184.0
2,10, 1,10, 0, 1, 0.00,60.00,Tuesday
135,57996196.7332391
3420,57996196.7332391
3738,6791184.0
2,10, 1,10, 0, 2, 0.00,60.00,Tuesday
135,57609860.1137362
3420,57609860.1137362
3738,6791184.0
2,10, 1,10, 0, 3, 0.00,60.00,Tuesday
135,57609860.1137362
3420,57609860.1137362
3738,6791184.0
2,10, 1,10, 0, 4, 0.00,60.00,Tuesday
135,57609860.1137362
3420,57609860.1137362
3738,6791184.0
2,10, 1,10, 0, 5, 0.00,60.00,Tuesday
135,57609860.1137362
3420,57609860.1137362
3738,6791184.0
2,10, 1,10, 0, 6, 0.00,60.00,Tuesday
135,57609860.1137362
3420,57609860.1137362
3738,6791184.0
2,10, 1,10, 0, 7, 0.00,60.00,Tuesday
135,110086825.20619196
3420,110086825.20619196
3738,6791184.0
2,10, 1,10, 0, 8, 0.00,60.00,Tuesday
135,189728529.2094301
3420,189728529.2094301
3738,141903825.11326754
2,10, 1,10, 0, 9, 0.00,60.00,Tuesday
135,308630506.36319965
3420,308630506.36319965
3738,90945362.51319773
2,10, 1,10, 0,10, 0.00,60.00,Tuesday
135,270345219.8040378
3420,270345219.8040378
3738,69443455.2920545
2,10, 1,10, 0,11, 0.00,60.00,Tuesday
135,262973891.30991948
3420,262973891.30991942
3738,59266257.4606567
2,10, 1,10, 0,12, 0.00,60.00,Tuesday
135,272733764.7369814
3420,272733764.7369814
3738,69794803.55219842
2,10, 1,10, 0,13, 0.00,60.00,Tuesday
135,289189147.02414745
3420,289189147.0241474
3738,51421192.6988184
2,10, 1,10, 0,14, 0.00,60.00,Tuesday
135,289172014.7686645
3420,289172014.7686644
3738,32843925.67708834
2,10, 1,10, 0,15, 0.00,60.00,Tuesday
135,281287323.92849207
3420,281287323.92849207
3738,16088613.023827802
2,10, 1,10, 0,16, 0.00,60.00,Tuesday
135,283142837.6942168
3420,283142837.6942167
3738,17431037.66049479
2,10, 1,10, 0,17, 0.00,60.00,Tuesday
135,295246263.3900415
3420,295246263.3900414
3738,23484745.317525785
2,10, 1,10, 0,18, 0.00,60.00,Tuesday
135,250207365.61232415
3420,250207365.61232415
3738,34003431.27363293
2,10, 1,10, 0,19, 0.00,60.00,Tuesday
135,130980285.95167705
3420,130980285.95167705
3738,70985869.44310394
2,10, 1,10, 0,20, 0.00,60.00,Tuesday
135,113569604.38930234
3420,113569604.38930234
3738,75236872.70772763
2,10, 1,10, 0,21, 0.00,60.00,Tuesday
135,103741021.25319713
3420,103741021.25319713
3738,84825544.10876027
2,10, 1,10, 0,22, 0.00,60.00,Tuesday
135,101871369.23386681
3420,101871369.23386681
3738,97816382.64846331
2,10, 1,10, 0,23, 0.00,60.00,Tuesday
135,77772390.65670998
3420,77772390.65670998
3738,6791184.0
2,10, 1,10, 0,24, 0.00,60.00,Tuesday
135,72442274.24247962
3420,72442274.24247962
3738,6791184.0
2,11, 1,11, 0, 1, 0.00,60.00,Wednesday
135,57996196.7332391
3420,57996196.7332391
3738,6791184.0
2,11, 1,11, 0, 2, 0.00,60.00,Wednesday
135,57609860.1137362
3420,57609860.1137362
3738,6791184.0
2,11, 1,11, 0, 3, 0.00,60.00,Wednesday
135,57609860.1137362
3420,57609860.1137362
3738,6791184.0
2,11, 1,11, 0, 4, 0.00,60.00,Wednesday
135,57609860.1137362
3420,57609860.1137362
3738,6791184.0
2,11, 1,11, 0, 5, 0.00,60.00,Wednesday
135,57609860.1137362
3420,57609860.1137362
3738,6791184.0
2,11, 1,11, 0, 6, 0.00,60.00,Wednesday
135,57609860.1137362
3420,57609860.1137362
3738,6791184.0
2,11, 1,11, 0, 7, 0.00,60.00,Wednesday
135,105903688.3860236
3420,105903688.38602361
3738,6791184.0
2,11, 1,11, 0, 8, 0.00,60.00,Wednesday
135,183953300.9006213
3420,183953300.9006213
3738,82867298.64531572
2,11, 1,11, 0, 9, 0.00,60.00,Wednesday
135,303224110.3605657
3420,303224110.36056566
3738,57663850.74585396
2,11, 1,11, 0,10, 0.00,60.00,Wednesday
135,267476797.94322693
3420,267476797.94322693
3738,42220242.84300564
2,11, 1,11, 0,11, 0.00,60.00,Wednesday
135,262088933.08849376
3420,262088933.08849373
3738,15881770.370683786
2,11, 1,11, 0,12, 0.00,60.00,Wednesday
135,270860332.07352585
3420,270860332.0735258
3738,26005405.332872882
2,11, 1,11, 0,13, 0.00,60.00,Wednesday
135,273512804.9937255
3420,273512804.9937255
3738,36946405.42888197
2,11, 1,11, 0,14, 0.00,60.00,Wednesday
135,274092746.6666685
3420,274092746.6666684
3738,28041669.88983849
2,11, 1,11, 0,15, 0.00,60.00,Wednesday
135,260061796.06726244
3420,260061796.0672624
3738,20142117.066478908
2,11, 1,11, 0,16, 0.00,60.00,Wednesday
135,260362726.3934092
3420,260362726.39340913
3738,22927540.417938087
2,11, 1,11, 0,17, 0.00,60.00,Wednesday
135,277466080.80152965
3420,277466080.80152965
3738,51472083.82597624
2,11, 1,11, 0,18, 0.00,60.00,Wednesday
135,241939348.78137928
3420,241939348.78137934
3738,56445595.02515902
2,11, 1,11, 0,19, 0.00,60.00,Wednesday
135,131637211.1708796
3420,131637211.1708796
3738,81989874.04141441
2,11, 1,11, 0,20, 0.00,60.00,Wednesday
135,113617818.23955795
3420,113617818.23955795
3738,91489975.4320023
2,11, 1,11, 0,21, 0.00,60.00,Wednesday
135,104255898.96359189
3420,104255898.9635919
3738,91140941.1470207
2,11, 1,11, 0,22, 0.00,60.00,Wednesday
135,101729173.88018039
3420,101729173.88018039
3738,101981424.52230889
2,11, 1,11, 0,23, 0.00,60.00,Wednesday
135,77772390.65670998
3420,77772390.65670998
3738,6791184.0
2,11, 1,11, 0,24, 0.00,60.00,Wednesday
135,72442274.24247962
3420,72442274.24247962
3738,6791184.0
2,12, 1,12, 0, 1, 0.00,60.00,Thursday
135,57996196.7332391
3420,57996196.7332391
3738,6791184.0
2,12, 1,12, 0, 2, 0.00,60.00,Thursday
135,57609860.1137362
3420,57609860.1137362
3738,6791184.0
2,12, 1,12, 0, 3, 0.00,60.00,Thursday
135,57609860.1137362
3420,57609860.1137362
3738,6791184.0
2,12, 1,12, 0, 4, 0.00,60.00,Thursday
135,57609860.1137362
3420,57609860.1137362
3738,6791184.0
2,12, 1,12, 0, 5, 0.00,60.00,Thursday
135,57609860.1137362
3420,57609860.1137362
3738,6791184.0
2,12, 1,12, 0, 6, 0.00,60.00,Thursday
135,57609860.1137362
3420,57609860.1137362
3738,6791184.0
2,12, 1,12, 0, 7, 0.00,60.00,Thursday
135,109240736.69203427
3420,109240736.6920343
3738,6791184.0
2,12, 1,12, 0, 8, 0.00,60.00,Thursday
135,189168728.28363293
3420,189168728.28363296
3738,131260292.48053904
2,12, 1,12, 0, 9, 0.00,60.00,Thursday
135,310595490.91937923
3420,310595490.9193792
3738,85699395.56751795
2,12, 1,12, 0,10, 0.00,60.00,Thursday
135,269474156.74776775
3420,269474156.74776775
3738,73297006.9100583
2,12, 1,12, 0,11, 0.00,60.00,Thursday
135,263354112.12639502
3420,263354112.12639493
3738,56670690.115379155
2,12, 1,12, 0,12, 0.00,60.00,Thursday
135,275493348.42799324
3420,275493348.42799324
3738,50060671.73210512
2,12, 1,12, 0,13, 0.00,60.00,Thursday
135,292348086.2424549
3420,292348086.2424548
3738,42307418.2280651
2,12, 1,12, 0,14, 0.00,60.00,Thursday
135,286283904.8936857
3420,286283904.89368564
3738,37465280.743961744
2,12, 1,12, 0,15, 0.00,60.00,Thursday
135,270721635.78363466
3420,270721635.78363466
3738,19038726.067125928
2,12, 1,12, 0,16, 0.00,60.00,Thursday
135,270546970.4275273
3420,270546970.42752725
3738,26848889.431046687
2,12, 1,12, 0,17, 0.00,60.00,Thursday
135,289130533.9859426
3420,289130533.9859426
3738,34295793.71749932
2,12, 1,12, 0,18, 0.00,60.00,Thursday
135,250943466.65945417
3420,250943466.65945417
3738,49657098.91463667
2,12, 1,12, 0,19, 0.00,60.00,Thursday
135,132514492.82994746
3420,132514492.82994744
3738,73514629.26578435
2,12, 1,12, 0,20, 0.00,60.00,Thursday
135,113569604.38930234
3420,113569604.38930234
3738,71322038.39314106
2,12, 1,12, 0,21, 0.00,60.00,Thursday
135,103800331.94835572
3420,103800331.94835573
3738,75045391.0933625
2,12, 1,12, 0,22, 0.00,60.00,Thursday
135,100882648.7653695
3420,100882648.7653695
3738,77639598.98785937
2,12, 1,12, 0,23, 0.00,60.00,Thursday
135,77772390.65670998
3420,77772390.65670998
3738,6791184.0
2,12, 1,12, 0,24, 0.00,60.00,Thursday
135,72442274.24247962
3420,72442274.24247962
3738,6791184.0
2,13, 1,13, 0, 1, 0.00,60.00,Friday
135,57996196.7332391
3420,57996196.7332391
3738,6791184.0