Program Version,EnergyPlus, Version 9.6.0-f420c06a69, YMD=2022.07.05 15:14
1,5,Environment Title[],Latitude[deg],Longitude[deg],Time Zone[],Elevation[m]
2,8,Day of Simulation[],Month[],Day of Month[],DST Indicator[1=yes 0=no],Hour[],StartMinute[],EndMinute[],DayType
3,5,Cumulative Day of Simulation[],Month[],Day of Month[],DST Indicator[1=yes 0=no],DayType  ! When Daily Meters Requested
4,2,Cumulative Days of Simulation[],Month[]  ! When Monthly Meters Requested
5,1,Cumulative Days of Simulation[] ! When Run Period Meters Requested
6,1,Calendar Year of Simulation[] ! When Annual Meters Requested
135,1,Electricity:Facility [J] !Hourly
3420,1,ElectricityNet:Facility [J] !Hourly
3738,1,NaturalGas:Facility [J] !Hourly
End of Data Dictionary
1,RUNPERIOD 1,  35.04,-106.62,  -7.00,1619.00
2,1, 1, 1, 0, 1, 0.00,60.00,Holiday
135,46359074.93593144
3420,46359074.93593143
3738,6791184.0
2,1, 1, 1, 0, 2, 0.00,60.00,Holiday
135,46359235.70955593
3420,46359235.709555924
3738,6791184.0
2,1, 1, 1, 0, 3, 0.00,60.00,Holiday
135,46359235.70955593
3420,46359235.709555924
3738,6791184.0
2,1, 1, 1, 0, 4, 0.00,60.00,Holiday
135,46359235.70955593
3420,46359235.709555924
3738,6791184.0
2,1, 1, 1, 0, 5, 0.00,60.00,Holiday
135,46359235.70955593
3420,46359235.709555924
3738,6791184.0
2,1, 1, 1, 0, 6, 0.00,60.00,Holiday
135,46359235.70955593
3420,46359235.709555924
3738,6791184.0
2,1, 1, 1, 0, 7, 0.00,60.00,Holiday
135,66032185.73006148
3420,66032185.73006148
3738,6791184.0
2,1, 1, 1, 0, 8, 0.00,60.00,Holiday
135,50074623.774579875
3420,50074623.774579875
3738,6791184.0
2,1, 1, 1, 0, 9, 0.00,60.00,Holiday
135,46351708.9331394
3420,46351708.9331394
3738,6791184.0
2,1, 1, 1, 0,10, 0.00,60.00,Holiday
135,46288813.17904917
3420,46288813.179049164
3738,6791184.0
2,1, 1, 1, 0,11, 0.00,60.00,Holiday
135,50009342.363199614
3420,50009342.363199614
3738,6791184.0
2,1, 1, 1, 0,12, 0.00,60.00,Holiday
135,53617732.55272024
3420,53617732.55272024
3738,6791184.0
2,1, 1, 1, 0,13, 0.00,60.00,Holiday
135,53634290.22678877
3420,53634290.22678876
3738,6791184.0
2,1, 1, 1, 0,14, 0.00,60.00,Holiday
135,58165555.4574862
3420,58165555.45748622
3738,6791184.0
2,1, 1, 1, 0,15, 0.00,60.00,Holiday
135,62026144.28259239
3420,62026144.28259239
3738,6791184.0
2,1, 1, 1, 0,16, 0.00,60.00,Holiday
135,62605261.924326405
3420,62605261.924326405
3738,6791184.0
2,1, 1, 1, 0,17, 0.00,60.00,Holiday
135,50224406.74534619
3420,50224406.74534619
3738,6791184.0
2,1, 1, 1, 0,18, 0.00,60.00,Holiday
135,67534969.93162571
3420,67534969.93162571
3738,6791184.0
2,1, 1, 1, 0,19, 0.00,60.00,Holiday
135,57105773.81922845
3420,57105773.81922844
3738,6791184.0
2,1, 1, 1, 0,20, 0.00,60.00,Holiday
135,48904615.70955593
3420,48904615.70955593
3738,6791184.0
2,1, 1, 1, 0,21, 0.00,60.00,Holiday
135,48904615.70955593
3420,48904615.70955593
3738,6791184.0
2,1, 1, 1, 0,22, 0.00,60.00,Holiday
135,48904615.70955593
3420,48904615.70955593
3738,6791184.0
2,1, 1, 1, 0,23, 0.00,60.00,Holiday
135,48904615.70955593
3420,48904615.70955593
3738,6791184.0
2,1, 1, 1, 0,24, 0.00,60.00,Holiday
135,48904615.70955593
3420,48904615.70955593
3738,6791184.0
2,2, 1, 2, 0, 1, 0.00,60.00,Monday
135,57609860.1137362
3420,57609860.1137362
3738,6791184.0
2,2, 1, 2, 0, 2, 0.00,60.00,Monday
135,57609860.1137362
3420,57609860.1137362
3738,6791184.0
2,2, 1, 2, 0, 3, 0.00,60.00,Monday
135,57609860.1137362
3420,57609860.1137362
3738,6791184.0
2,2, 1, 2, 0, 4, 0.00,60.00,Monday
135,57609860.1137362
3420,57609860.1137362
3738,6791184.0
2,2, 1, 2, 0, 5, 0.00,60.00,Monday
135,57609860.1137362
3420,57609860.1137362
3738,6791184.0
2,2, 1, 2, 0, 6, 0.00,60.00,Monday
135,57609860.1137362
3420,57609860.1137362
3738,6791184.0
2,2, 1, 2, 0, 7, 0.00,60.00,Monday
135,137296304.18115827
3420,137296304.18115827
3738,6791184.0
2,2, 1, 2, 0, 8, 0.00,60.00,Monday
135,228091710.0508986
3420,228091710.0508986
3738,147577462.2909266
2,2, 1, 2, 0, 9, 0.00,60.00,Monday
135,310928566.17060184
3420,310928566.17060184
3738,92519461.25435951
2,2, 1, 2, 0,10, 0.00,60.00,Monday
135,270881865.80048376
3420,270881865.8004837
3738,64104549.62432517
2,2, 1, 2, 0,11, 0.00,60.00,Monday
135,266825978.4651965
3420,266825978.46519646
3738,26002213.802575894
2,2, 1, 2, 0,12, 0.00,60.00,Monday
135,286238561.40794075
3420,286238561.40794075
3738,20876803.489152778
2,2, 1, 2, 0,13, 0.00,60.00,Monday
135,288356518.2716734
3420,288356518.2716734
3738,31334359.881758783
2,2, 1, 2, 0,14, 0.00,60.00,Monday
135,302975525.7747885
3420,302975525.7747885
3738,26165959.05339483
2,2, 1, 2, 0,15, 0.00,60.00,Monday
135,294972021.31000483
3420,294972021.3100048
3738,16663111.546087924
2,2, 1, 2, 0,16, 0.00,60.00,Monday
135,299410344.29420304
3420,299410344.29420304
3738,19076358.658423744
2,2, 1, 2, 0,17, 0.00,60.00,Monday
135,298389053.9474881
3420,298389053.94748807
3738,20696594.044879485
2,2, 1, 2, 0,18, 0.00,60.00,Monday
135,237624719.45918894
3420,237624719.45918894
3738,24658594.589504886
2,2, 1, 2, 0,19, 0.00,60.00,Monday
135,131458533.53394982
3420,131458533.5339498
3738,57891981.091293484
2,2, 1, 2, 0,20, 0.00,60.00,Monday
135,116433380.00818448
3420,116433380.00818448
3738,72469446.82990465
2,2, 1, 2, 0,21, 0.00,60.00,Monday
135,107904137.86016025
3420,107904137.86016026
3738,84419336.25488532
2,2, 1, 2, 0,22, 0.00,60.00,Monday
135,105912372.76109348
3420,105912372.7610935
3738,86039928.28257765
2,2, 1, 2, 0,23, 0.00,60.00,Monday
135,77772390.65670998
3420,77772390.65670998
3738,6791184.0
2,2, 1, 2, 0,24, 0.00,60.00,Monday
135,72442274.24247962
3420,72442274.24247962
3738,6791184.0
2,3, 1, 3, 0, 1, 0.00,60.00,Tuesday
135,57996196.7332391
3420,57996196.7332391
3738,6791184.0
2,3, 1, 3, 0, 2, 0.00,60.00,Tuesday
135,57609860.1137362
3420,57609860.1137362
3738,6791184.0
2,3, 1, 3, 0, 3, 0.00,60.00,Tuesday
135,57609860.1137362
3420,57609860.1137362
3738,6791184.0
2,3, 1, 3, 0, 4, 0.00,60.00,Tuesday
135,57609860.1137362
3420,57609860.1137362
3738,6791184.0
2,3, 1, 3, 0, 5, 0.00,60.00,Tuesday
135,57609860.1137362
3420,57609860.1137362
3738,6791184.0
2,3, 1, 3, 0, 6, 0.00,60.00,Tuesday
135,57609860.1137362
3420,57609860.1137362
3738,6791184.0
2,3, 1, 3, 0, 7, 0.00,60.00,Tuesday
135,112102812.71491654
3420,112102812.71491656
3738,6791184.0
2,3, 1, 3, 0, 8, 0.00,60.00,Tuesday
135,192408370.01605332
3420,192408370.0160533
3738,131270974.34457883
2,3, 1, 3, 0, 9, 0.00,60.00,Tuesday
135,311377468.3005356
3420,311377468.30053556
3738,77011765.8614414
2,3, 1, 3, 0,10, 0.00,60.00,Tuesday
135,275991645.6933976
3420,275991645.6933976
3738,37032265.1894799
2,3, 1, 3, 0,11, 0.00,60.00,Tuesday
135,275027993.38438785
3420,275027993.38438785
3738,12356874.77290462
2,3, 1, 3, 0,12, 0.00,60.00,Tuesday
135,293027824.6580732
3420,293027824.6580732
3738,23129488.975600578
2,3, 1, 3, 0,13, 0.00,60.00,Tuesday
135,294632280.35879445
3420,294632280.3587944
3738,31312393.36103994
2,3, 1, 3, 0,14, 0.00,60.00,Tuesday
135,311631511.72635615
3420,311631511.72635615
3738,26179763.885574874
2,3, 1, 3, 0,15, 0.00,60.00,Tuesday
135,297469091.1916596
3420,297469091.1916596
3738,20133738.27406303
2,3, 1, 3, 0,16, 0.00,60.00,Tuesday
135,301048099.2336246
3420,301048099.2336245
3738,15641933.428970817
2,3, 1, 3, 0,17, 0.00,60.00,Tuesday
135,304381337.59458923
3420,304381337.5945892
3738,21131219.676558174
2,3, 1, 3, 0,18, 0.00,60.00,Tuesday
135,241555527.0717467
3420,241555527.07174665
3738,18150591.1484727
2,3, 1, 3, 0,19, 0.00,60.00,Tuesday
135,131866343.2953921
3420,131866343.2953921
3738,35254282.540325396
2,3, 1, 3, 0,20, 0.00,60.00,Tuesday
135,113569604.38930234
3420,113569604.38930234
3738,55618240.98964385
2,3, 1, 3, 0,21, 0.00,60.00,Tuesday
135,103004750.63109705
3420,103004750.63109705
3738,64520228.30643645
2,3, 1, 3, 0,22, 0.00,60.00,Tuesday
135,100314428.85157591
3420,100314428.85157594
3738,93974720.59014836
2,3, 1, 3, 0,23, 0.00,60.00,Tuesday
135,77772390.65670998
3420,77772390.65670998
3738,6791184.0
2,3, 1, 3, 0,24, 0.00,60.00,Tuesday
135,72442274.24247962
3420,72442274.24247962
3738,6791184.0
2,4, 1, 4, 0, 1, 0.00,60.00,Wednesday
135,57996196.7332391
3420,57996196.7332391
3738,6791184.0
2,4, 1, 4, 0, 2, 0.00,60.00,Wednesday
135,57609860.1137362
3420,57609860.1137362
3738,6791184.0
2,4, 1, 4, 0, 3, 0.00,60.00,Wednesday
135,57609860.1137362
3420,57609860.1137362
3738,6791184.0
2,4, 1, 4, 0, 4, 0.00,60.00,Wednesday
135,57609860.1137362
3420,57609860.1137362
3738,6791184.0
2,4, 1, 4, 0, 5, 0.00,60.00,Wednesday
135,57609860.1137362
3420,57609860.1137362
3738,6791184.0
2,4, 1, 4, 0, 6, 0.00,60.00,Wednesday
135,57609860.1137362
3420,57609860.1137362
3738,6791184.0
2,4, 1, 4, 0, 7, 0.00,60.00,Wednesday
135,107774072.52574906
3420,107774072.52574907
3738,6791184.0
2,4, 1, 4, 0, 8, 0.00,60.00,Wednesday
135,190977085.51973185
3420,190977085.51973185
3738,152549075.17350966
2,4, 1, 4, 0, 9, 0.00,60.00,Wednesday
135,309442795.73769474
3420,309442795.7376947
3738,90061261.93808414
2,4, 1, 4, 0,10, 0.00,60.00,Wednesday
135,270429451.7583626
3420,270429451.7583626
3738,61809308.47868821
2,4, 1, 4, 0,11, 0.00,60.00,Wednesday
135,264628704.1230281
3420,264628704.1230281
3738,42705920.408390485
2,4, 1, 4, 0,12, 0.00,60.00,Wednesday
135,278718611.7130605
3420,278718611.7130605
3738,27237330.092575423
2,4, 1, 4, 0,13, 0.00,60.00,Wednesday
135,284511525.7473638
3420,284511525.7473638
3738,31351205.050687008
2,4, 1, 4, 0,14, 0.00,60.00,Wednesday
135,289894129.4150424
3420,289894129.4150424
3738,26189702.813008703
2,4, 1, 4, 0,15, 0.00,60.00,Wednesday
135,275182970.10820526
3420,275182970.1082052
3738,20162358.474987995
2,4, 1, 4, 0,16, 0.00,60.00,Wednesday
135,274853282.9723808
3420,274853282.97238076
3738,15652705.375646915
2,4, 1, 4, 0,17, 0.00,60.00,Wednesday
135,294556686.5135559
3420,294556686.5135559
3738,25318578.899761163
2,4, 1, 4, 0,18, 0.00,60.00,Wednesday
135,251267316.60602063
3420,251267316.60602063
3738,20631977.949197866
2,4, 1, 4, 0,19, 0.00,60.00,Wednesday
135,131888589.07372302
3420,131888589.07372302
3738,37714540.541103825
2,4, 1, 4, 0,20, 0.00,60.00,Wednesday
135,113569604.38930234
3420,113569604.38930234
3738,52554108.24589509
2,4, 1, 4, 0,21, 0.00,60.00,Wednesday
135,102913361.90140839
3420,102913361.90140839
3738,65833880.561717674
2,4, 1, 4, 0,22, 0.00,60.00,Wednesday
135,99099294.84500085
3420,99099294.84500086
3738,77140171.07041092
2,4, 1, 4, 0,23, 0.00,60.00,Wednesday
135,77772390.65670998
3420,77772390.65670998
3738,6791184.0
2,4, 1, 4, 0,24, 0.00,60.00,Wednesday
135,72442274.24247962
3420,72442274.24247962
3738,6791184.0
2,5, 1, 5, 0, 1, 0.00,60.00,Thursday
135,57996196.7332391
3420,57996196.7332391
3738,6791184.0
2,5, 1, 5, 0, 2, 0.00,60.00,Thursday
135,57609860.1137362
3420,57609860.1137362
3738,6791184.0
2,5, 1, 5, 0, 3, 0.00,60.00,Thursday
135,57609860.1137362
3420,57609860.1137362
3738,6791184.0
2,5, 1, 5, 0, 4, 0.00,60.00,Thursday
135,57609860.1137362
3420,57609860.1137362
3738,6791184.0
2,5, 1, 5, 0, 5, 0.00,60.00,Thursday
135,57609860.1137362
3420,57609860.1137362
3738,6791184.0
2,5, 1, 5, 0, 6, 0.00,60.00,Thursday
135,57609860.1137362
3420,57609860.1137362
3738,6791184.0
2,5, 1, 5, 0, 7, 0.00,60.00,Thursday
135,100664134.13277073
3420,100664134.13277075
3738,6791184.0
2,5, 1, 5, 0, 8, 0.00,60.00,Thursday
135,179218138.09158877
3420,179218138.09158877
3738,123385563.81631427
2,5, 1, 5, 0, 9, 0.00,60.00,Thursday
135,310140494.9575479
3420,310140494.9575479
3738,66366961.95607806
2,5, 1, 5, 0,10, 0.00,60.00,Thursday
135,278302077.47215706
3420,278302077.47215706
3738,21145617.81198257
2,5, 1, 5, 0,11, 0.00,60.00,Thursday
135,277656547.2238385
3420,277656547.22383845
3738,11332705.54928314
2,5, 1, 5, 0,12, 0.00,60.00,Thursday
135,290287840.52319187
3420,290287840.5231918
3738,20890782.0365476
2,5, 1, 5, 0,13, 0.00,60.00,Thursday
135,290349019.8888911
3420,290349019.8888911
3738,31320858.562127728
2,5, 1, 5, 0,14, 0.00,60.00,Thursday
135,311941214.5494007
3420,311941214.54940075
3738,26189007.473221518
2,5, 1, 5, 0,15, 0.00,60.00,Thursday
135,305260067.94258845
3420,305260067.9425884
3738,20203910.290040478
2,5, 1, 5, 0,16, 0.00,60.00,Thursday
135,309027881.6614876
3420,309027881.6614876
3738,15641467.481528439
2,5, 1, 5, 0,17, 0.00,60.00,Thursday
135,312443656.95504934
3420,312443656.9550493
3738,25322054.82401494
2,5, 1, 5, 0,18, 0.00,60.00,Thursday
135,244621806.36539933
3420,244621806.36539933
3738,11106437.11808634
2,5, 1, 5, 0,19, 0.00,60.00,Thursday
135,132384235.43671827
3420,132384235.43671827
3738,18515542.883175965
2,5, 1, 5, 0,20, 0.00,60.00,Thursday
135,113569604.38930234
3420,113569604.38930234
3738,38182825.55833641
2,5, 1, 5, 0,21, 0.00,60.00,Thursday
135,102910895.06207252
3420,102910895.06207252
3738,50500896.487481296
2,5, 1, 5, 0,22, 0.00,60.00,Thursday
135,98331323.74705626
3420,98331323.74705628
3738,64229737.95698746
2,5, 1, 5, 0,23, 0.00,60.00,Thursday
135,77772390.65670998
3420,77772390.65670998
3738,6791184.0
2,5, 1, 5, 0,24, 0.00,60.00,Thursday
135,72442274.24247962
3420,72442274.24247962
3738,6791184.0
2,6, 1, 6, 0, 1, 0.00,60.00,Friday
135,57996196.7332391
3420,57996196.7332391
3738,6791184.0
2,6, 1, 6, 0, 2, 0.00,60.00,Friday
135,57609860.1137362
3420,57609860.1137362
3738,6791184.0
2,6, 1, 6, 0, 3, 0.00,60.00,Friday
135,57609860.1137362
3420,57609860.1137362
3738,6791184.0
2,6, 1, 6, 0, 4, 0.00,60.00,Friday
135,57609860.1137362
3420,57609860.1137362
3738,6791184.0
2,6, 1, 6, 0, 5, 0.00,60.00,Friday
135,57609860.1137362
3420,57609860.1137362
3738,6791184.0
2,6, 1, 6, 0, 6, 0.00,60.00,Friday
135,57609860.1137362
3420,57609860.1137362
3738,6791184.0
2,6, 1, 6, 0, 7, 0.00,60.00,Friday
135,101854641.58469021
3420,101854641.58469023
3738,6791184.0
2,6, 1, 6, 0, 8, 0.00,60.00,Friday
135,184934839.05193862
3420,184934839.05193862
3738,92518127.20429313
2,6, 1, 6, 0, 9, 0.00,60.00,Friday
135,303570319.40405464
3420,303570319.40405464
3738,62455975.3629368
2,6, 1, 6, 0,10, 0.00,60.00,Friday
135,266143705.03749964
3420,266143705.03749964
3738,50121413.051550455
2,6, 1, 6, 0,11, 0.00,60.00,Friday
135,258942370.12432155
3420,258942370.12432152
3738,35545837.168825224
2,6, 1, 6, 0,12, 0.00,60.00,Friday
135,270095834.1724105
3420,270095834.1724105
3738,25964410.29785531
2,6, 1, 6, 0,13, 0.00,60.00,Friday
135,277317989.9073483
3420,277317989.9073482
3738,27935881.04277749
2,6, 1, 6, 0,14, 0.00,60.00,Friday
135,301521590.75078934
3420,301521590.75078934
3738,27501198.028757956
2,6, 1, 6, 0,15, 0.00,60.00,Friday
135,290706046.39069396
3420,290706046.39069396
3738,18990740.555108823
2,6, 1, 6, 0,16, 0.00,60.00,Friday
135,281998224.39665794
3420,281998224.3966579
3738,15649773.890930813
2,6, 1, 6, 0,17, 0.00,60.00,Friday
135,284719342.7003031
3420,284719342.70030296
3738,25324509.200957857
2,6, 1, 6, 0,18, 0.00,60.00,Friday
135,236579994.14567944
3420,236579994.1456794
3738,27293402.942738883
2,6, 1, 6, 0,19, 0.00,60.00,Friday
135,131195105.43646796
3420,131195105.43646796
3738,48392105.74056311
2,6, 1, 6, 0,20, 0.00,60.00,Friday
135,113569604.38930234
3420,113569604.38930234
3738,59583025.658990316
2,6, 1, 6, 0,21, 0.00,60.00,Friday
135,103035279.7570355
3420,103035279.7570355
3738,84616689.31700087
2,6, 1, 6, 0,22, 0.00,60.00,Friday
135,99590388.52106304
3420,99590388.52106306
3738,90228478.46224326
2,6, 1, 6, 0,23, 0.00,60.00,Friday
135,77772390.65670998
3420,77772390.65670998
3738,6791184.0
2,6, 1, 6, 0,24, 0.00,60.00,Friday
135,72442274.24247962
3420,72442274.24247962
3738,6791184.0
2,7, 1, 7, 0, 1, 0.00,60.00,Saturday
135,46745513.81922844
3420,46745513.81922843
3738,6791184.0
2,7, 1, 7, 0, 2, 0.00,60.00,Saturday
135,46359235.70955593
3420,46359235.709555924
3738,6791184.0
2,7, 1, 7, 0, 3, 0.00,60.00,Saturday
135,46359235.70955593
3420,46359235.709555924
3738,6791184.0
2,7, 1, 7, 0, 4, 0.00,60.00,Saturday
135,46359235.70955593
3420,46359235.709555924
3738,6791184.0
2,7, 1, 7, 0, 5, 0.00,60.00,Saturday
135,46359235.70955593
3420,46359235.709555924
3738,6791184.0
2,7, 1, 7, 0, 6, 0.00,60.00,Saturday
135,46359235.70955593
3420,46359235.709555924
3738,6791184.0
2,7, 1, 7, 0, 7, 0.00,60.00,Saturday
135,109030929.9581468
3420,109030929.9581468
3738,6791184.0
2,7, 1, 7, 0, 8, 0.00,60.00,Saturday
135,131872952.78883727
3420,131872952.78883725
3738,102750305.35373236
2,7, 1, 7, 0, 9, 0.00,60.00,Saturday
135,130516483.07282141
3420,130516483.07282136
3738,76897462.71419063
2,7, 1, 7, 0,10, 0.00,60.00,Saturday
135,133546728.62284608
3420,133546728.62284608
3738,55453412.14078784
2,7, 1, 7, 0,11, 0.00,60.00,Saturday
135,127029945.51054093
3420,127029945.5105409
3738,25359201.00039612
2,7, 1, 7, 0,12, 0.00,60.00,Saturday
135,136332858.98375177
3420,136332858.98375177
3738,6938802.618105942
2,7, 1, 7, 0,13, 0.00,60.00,Saturday
135,96276568.06644888
3420,96276568.06644887
3738,6791184.0
2,7, 1, 7, 0,14, 0.00,60.00,Saturday
135,86595028.15383393
3420,86595028.15383394
3738,6791184.0
2,7, 1, 7, 0,15, 0.00,60.00,Saturday
135,80777988.06353001
3420,80777988.06353001
3738,6791184.0
2,7, 1, 7, 0,16, 0.00,60.00,Saturday
135,76233398.28453368
3420,76233398.28453368
3738,6791184.0
2,7, 1, 7, 0,17, 0.00,60.00,Saturday
135,78316963.22306694
3420,78316963.22306694
3738,6791184.0
2,7, 1, 7, 0,18, 0.00,60.00,Saturday
135,83077160.33306564
3420,83077160.33306564
3738,16058863.416279936
2,7, 1, 7, 0,19, 0.00,60.00,Saturday
135,66276703.53612528
3420,66276703.53612528
3738,6791184.0
2,7, 1, 7, 0,20, 0.00,60.00,Saturday
135,49290893.81922844
3420,49290893.81922844
3738,6791184.0
2,7, 1, 7, 0,21, 0.00,60.00,Saturday
135,48904615.70955593
3420,48904615.70955593
3738,6791184.0
2,7, 1, 7, 0,22, 0.00,60.00,Saturday
135,48904615.70955593
3420,48904615.70955593
3738,6791184.0
2,7, 1, 7, 0,23, 0.00,60.00,Saturday
135,48904615.70955593
3420,48904615.70955593
3738,6791184.0
2,7, 1, 7, 0,24, 0.00,60.00,Saturday
135,48904615.70955593
3420,48904615.70955593
3738,6791184.0
2,8, 1, 8, 0, 1, 0.00,60.00,Sunday
135,46359235.70955593
3420,46359235.709555924
3738,6791184.0
2,8, 1, 8, 0, 2, 0.00,60.00,Sunday
135,46359235.70955593
3420,46359235.709555924
3738,6791184.0
2,8, 1, 8, 0, 3, 0.00,60.00,Sunday
135,46359235.70955593
3420,46359235.709555924
3738,6791184.0
2,8, 1, 8, 0, 4, 0.00,60.00,Sunday
135,46359235.70955593
3420,46359235.709555924
3738,6791184.0
2,8, 1, 8, 0, 5, 0.00,60.00,Sunday
135,46359235.70955593
3420,46359235.709555924
3738,6791184.0
2,8, 1, 8, 0, 6, 0.00,60.00,Sunday
135,46359235.70955593
3420,46359235.709555924
3738,6791184.0
2,8, 1, 8, 0, 7, 0.00,60.00,Sunday
135,66032185.73006148
3420,66032185.73006148
3738,6791184.0
2,8, 1, 8, 0, 8, 0.00,60.00,Sunday
135,53323580.330645084
3420,53323580.330645084
3738,6791184.0
2,8, 1, 8, 0, 9, 0.00,60.00,Sunday
135,46344166.24829911
3420,46344166.24829911
3738,6791184.0
2,8, 1, 8, 0,10, 0.00,60.00,Sunday
135,46288812.51597283
3420,46288812.51597283
3738,6791184.0
2,8, 1, 8, 0,11, 0.00,60.00,Sunday
135,47490966.02515152
3420,47490966.02515152
3738,6791184.0
2,8, 1, 8, 0,12, 0.00,60.00,Sunday
135,51533602.74963343
3420,51533602.749633424
3738,6791184.0
2,8, 1, 8, 0,13, 0.00,60.00,Sunday
135,54265501.43670318
3420,54265501.43670318
3738,6791184.0
2,8, 1, 8, 0,14, 0.00,60.00,Sunday
135,53730814.87186525
3420,53730814.87186526
3738,6791184.0
2,8, 1, 8, 0,15, 0.00,60.00,Sunday
135,54224595.23584874
3420,54224595.23584874
3738,6791184.0
2,8, 1, 8, 0,16, 0.00,60.00,Sunday
135,53539107.4814745
3420,53539107.48147451
3738,6791184.0
2,8, 1, 8, 0,17, 0.00,60.00,Sunday
135,49371975.328517206
3420,49371975.32851721
3738,6791184.0
2,8, 1, 8, 0,18, 0.00,60.00,Sunday
135,66276671.30593526
3420,66276671.30593526
3738,6791184.0
2,8, 1, 8, 0,19, 0.00,60.00,Sunday
135,57105773.81922845
3420,57105773.81922844
3738,6791184.0
2,8, 1, 8, 0,20, 0.00,60.00,Sunday
135,48904615.70955593
3420,48904615.70955593
3738,6791184.0
2,8, 1, 8, 0,21, 0.00,60.00,Sunday
135,48904615.70955593
3420,48904615.70955593
3738,6791184.0
2,8, 1, 8, 0,22, 0.00,60.00,Sunday
135,48904615.70955593
3420,48904615.70955593
3738,6791184.0
2,8, 1, 8, 0,23, 0.00,60.00,Sunday
135,48904615.70955593
3420,48904615.70955593
3738,6791184.0
2,8, 1, 8, 0,24, 0.00,60.00,Sunday
135,48904615.70955593
3420,48904615.70955593
3738,6791184.0
2,9, 1, 9, 0, 1, 0.00,60.00,Monday
135,57609860.1137362
3420,57609860.1137362
3738,6791184.0
2,9, 1, 9, 0, 2, 0.00,60.00,Monday
135,57609860.1137362
3420,57609860.1137362
3738,6791184.0
2,9, 1, 9, 0, 3, 0.00,60.00,Monday
135,57609860.1137362
3420,57609860.1137362
3738,6791184.0
2,9, 1, 9, 0, 4, 0.00,60.00,Monday
135,57609860.1137362
3420,57609860.1137362
3738,6791184.0
2,9, 1, 9, 0, 5, 0.00,60.00,Monday
135,57609860.1137362
3420,57609860.1137362
3738,6791184.0
2,9, 1, 9, 0, 6, 0.00,60.00,Monday
135,57609860.1137362
3420,57609860.1137362
3738,6791184.0
2,9, 1, 9, 0, 7, 0.00,60.00,Monday
135,128211469.6106271
3420,128211469.6106271
3738,6791184.0
2,9, 1, 9, 0, 8, 0.00,60.00,Monday
135,215859675.4777698
3420,215859675.47776976
3738,137954472.6549134
2,9, 1, 9, 0, 9, 0.00,60.00,Monday
135,314520359.2552099
3420,314520359.2552098
3738,84151354.98891304
2,9, 1, 9, 0,10, 0.00,60.00,Monday
135,274804289.2152102
3420,274804289.2152102
3738,58867266.720271006
2,9, 1, 9, 0,11, 0.00,60.00,Monday
135,270860034.07916254
3420,270860034.0791625
3738,21864764.486503836
2,9, 1, 9, 0,12, 0.00,60.00,Monday
135,288618235.8272459
3420,288618235.82724583
3738,20903860.657155946
2,9, 1, 9, 0,13, 0.00,60.00,Monday
135,291053582.655861
3420,291053582.65586096
3738,31355574.55142117
2,9, 1, 9, 0,14, 0.00,60.00,Monday
135,307278974.845479
3420,307278974.845479
3738,26214925.54615531
2,9, 1, 9, 0,15, 0.00,60.00,Monday
135,301154194.5249374
3420,301154194.52493733
3738,20131557.614558004
2,9, 1, 9, 0,16, 0.00,60.00,Monday
135,310433883.2677055
3420,310433883.2677055
3738,15659349.167957503
2,9, 1, 9, 0,17, 0.00,60.00,Monday
135,321911379.2380874
3420,321911379.23808736
3738,25336255.662568383
2,9, 1, 9, 0,18, 0.00,60.00,Monday
135,242422639.84527487
3420,242422639.84527487
3738,13162758.65341151
2,9, 1, 9, 0,19, 0.00,60.00,Monday
135,131852843.78048608
3420,131852843.78048608
3738,34027218.40302079
2,9, 1, 9, 0,20, 0.00,60.00,Monday
135,113606176.15954942
3420,113606176.15954942
3738,43631040.36482943
2,9, 1, 9, 0,21, 0.00,60.00,Monday
135,103907374.2451483
3420,103907374.24514832
3738,33469039.002738804
2,9, 1, 9, 0,22, 0.00,60.00,Monday
135,100802096.19550456
3420,100802096.19550458
3738,39916523.88100588
2,9, 1, 9, 0,23, 0.00,60.00,Monday
135,77772390.65670998
3420,77772390.65670998
3738,6791184.0
2,9, 1, 9, 0,24, 0.00,60.00,Monday
135,72442274.24247962
3420,72442274.24247962
3738,6791184.0
2,10, 1,10, 0, 1, 0.00,60.00,Tuesday
135,57996196.7332391
3420,57996196.7332391
3738,6791184.0
2,10, 1,10, 0, 2, 0.00,60.00,Tuesday
135,57609860.1137362
3420,57609860.1137362
3738,6791184.0
2,10, 1,10, 0, 3, 0.00,60.00,Tuesday
135,57609860.1137362
3420,57609860.1137362
3738,6791184.0
2,10, 1,10, 0, 4, 0.00,60.00,Tuesday
135,57609860.1137362
3420,57609860.1137362
3738,6791184.0
2,10, 1,10, 0, 5, 0.00,60.00,Tuesday
135,57609860.1137362
3420,57609860.1137362
3738,6791184.0
2,10, 1,10, 0, 6, 0.00,60.00,Tuesday
135,57609860.1137362
3420,57609860.1137362
3738,6791184.0
2,10, 1,10, 0, 7, 0.00,60.00,Tuesday
135,112776279.27392852
3420,112776279.27392854
3738,6791184.0
2,10, 1,10, 0, 8, 0.00,60.00,Tuesday
135,194304208.67572734
3420,194304208.67572734
3738,152348817.76286715
2,10, 1,10, 0, 9, 0.00,60.00,Tuesday
135,308508952.76069397
3420,308508952.76069397
3738,97608033.43632208
2,10, 1,10, 0,10, 0.00,60.00,Tuesday
135,269306217.8344654
3420,269306217.8344654
3738,76531260.0887686
2,10, 1,10, 0,11, 0.00,60.00,Tuesday
135,261763004.90591112
3420,261763004.9059111
3738,66240792.82629794
2,10, 1,10, 0,12, 0.00,60.00,Tuesday
135,271559408.4778293
3420,271559408.4778293
3738,77077718.92570107
2,10, 1,10, 0,13, 0.00,60.00,Tuesday
135,291066884.2621084
3420,291066884.2621084
3738,58404195.688179135
2,10, 1,10, 0,14, 0.00,60.00,Tuesday
135,287336697.56074727
3420,287336697.5607472
3738,37729194.804425634
2,10, 1,10, 0,15, 0.00,60.00,Tuesday
135,279284872.7924799
3420,279284872.7924799
3738,16070834.473815177
2,10, 1,10, 0,16, 0.00,60.00,Tuesday
135,281668207.2862827
3420,281668207.2862827
3738,17451044.209489446
2,10, 1,10, 0,17, 0.00,60.00,Tuesday
135,291684415.9757503
3420,291684415.97575027
3738,26232343.490126513
2,10, 1,10, 0,18, 0.00,60.00,Tuesday
135,249125673.24216163
3420,249125673.24216163
3738,60322292.91395262
2,10, 1,10, 0,19, 0.00,60.00,Tuesday
135,131493321.16454896
3420,131493321.16454898
3738,122241923.15070722
2,10, 1,10, 0,20, 0.00,60.00,Tuesday
135,115953135.25219628
3420,115953135.25219625
3738,133731079.95609573
2,10, 1,10, 0,21, 0.00,60.00,Tuesday
135,108557193.78671567
3420,108557193.78671567
3738,150728423.64395455
2,10, 1,10, 0,22, 0.00,60.00,Tuesday
135,110157495.23204488
3420,110157495.23204489
3738,169038835.6157387
2,10, 1,10, 0,23, 0.00,60.00,Tuesday
135,77772390.65670998
3420,77772390.65670998
3738,6791184.0
2,10, 1,10, 0,24, 0.00,60.00,Tuesday
135,72442274.24247962
3420,72442274.24247962
3738,6791184.0
2,11, 1,11, 0, 1, 0.00,60.00,Wednesday
135,57996196.7332391
3420,57996196.7332391
3738,6791184.0
2,11, 1,11, 0, 2, 0.00,60.00,Wednesday
135,57609860.1137362
3420,57609860.1137362
3738,6791184.0
2,11, 1,11, 0, 3, 0.00,60.00,Wednesday
135,57609860.1137362
3420,57609860.1137362
3738,6791184.0
2,11, 1,11, 0, 4, 0.00,60.00,Wednesday
135,57609860.1137362
3420,57609860.1137362
3738,6791184.0
2,11, 1,11, 0, 5, 0.00,60.00,Wednesday
135,57609860.1137362
3420,57609860.1137362
3738,6791184.0
2,11, 1,11, 0, 6, 0.00,60.00,Wednesday
135,57609860.1137362
3420,57609860.1137362
3738,6791184.0
2,11, 1,11, 0, 7, 0.00,60.00,Wednesday
135,135387966.52797985
3420,135387966.52797982
3738,6791184.0
2,11, 1,11, 0, 8, 0.00,60.00,Wednesday
135,215115303.96538252
3420,215115303.96538252
3738,136398413.69486555
2,11, 1,11, 0, 9, 0.00,60.00,Wednesday
135,316071305.54928184
3420,316071305.5492819
3738,85708008.22168247
2,11, 1,11, 0,10, 0.00,60.00,Wednesday
135,273209673.7613964
3420,273209673.76139635
3738,68602744.3467997
2,11, 1,11, 0,11, 0.00,60.00,Wednesday
135,266083908.17710224
3420,266083908.17710218
3738,37022065.69796571
2,11, 1,11, 0,12, 0.00,60.00,Wednesday
135,278821353.0092854
3420,278821353.0092854
3738,36719726.01545154
2,11, 1,11, 0,13, 0.00,60.00,Wednesday
135,289387575.5377037
3420,289387575.53770375
3738,50496952.8461638
2,11, 1,11, 0,14, 0.00,60.00,Wednesday
135,284857742.4315686
3420,284857742.4315686
3738,37704043.440165065
2,11, 1,11, 0,15, 0.00,60.00,Wednesday
135,269456274.66788
3420,269456274.66788
3738,30725957.081717387
2,11, 1,11, 0,16, 0.00,60.00,Wednesday
135,268097325.11930424
3420,268097325.11930418
3738,38820885.16836488
2,11, 1,11, 0,17, 0.00,60.00,Wednesday
135,284571140.903757
3420,284571140.903757
3738,68243167.77297956
2,11, 1,11, 0,18, 0.00,60.00,Wednesday
135,246482170.04445603
3420,246482170.044456
3738,73737812.22374058
2,11, 1,11, 0,19, 0.00,60.00,Wednesday
135,134785524.0910742
3420,134785524.09107417
3738,116217540.99965955
2,11, 1,11, 0,20, 0.00,60.00,Wednesday
135,118442986.9295755
3420,118442986.9295755
3738,130167152.01624055
2,11, 1,11, 0,21, 0.00,60.00,Wednesday
135,112313542.663517
3420,112313542.663517
3738,135102771.2537695
2,11, 1,11, 0,22, 0.00,60.00,Wednesday
135,112473075.336804
3420,112473075.336804
3738,150733015.25931466
2,11, 1,11, 0,23, 0.00,60.00,Wednesday
135,77772390.65670998
3420,77772390.65670998
3738,6791184.0
2,11, 1,11, 0,24, 0.00,60.00,Wednesday
135,72442274.24247962
3420,72442274.24247962
3738,6791184.0
2,12, 1,12, 0, 1, 0.00,60.00,Thursday
135,57996196.7332391
3420,57996196.7332391
3738,6791184.0
2,12, 1,12, 0, 2, 0.00,60.00,Thursday
135,57609860.1137362
3420,57609860.1137362
3738,6791184.0
2,12, 1,12, 0, 3, 0.00,60.00,Thursday
135,57609860.1137362
3420,57609860.1137362
3738,6791184.0
2,12, 1,12, 0, 4, 0.00,60.00,Thursday
135,57609860.1137362
3420,57609860.1137362
3738,6791184.0
2,12, 1,12, 0, 5, 0.00,60.00,Thursday
135,57609860.1137362
3420,57609860.1137362
3738,6791184.0
2,12, 1,12, 0, 6, 0.00,60.00,Thursday
135,57609860.1137362
3420,57609860.1137362
3738,6791184.0
2,12, 1,12, 0, 7, 0.00,60.00,Thursday
135,129808633.28902397
3420,129808633.28902397
3738,6791184.0
2,12, 1,12, 0, 8, 0.00,60.00,Thursday
135,215294700.92313942
3420,215294700.9231394
3738,164778486.31200364
2,12, 1,12, 0, 9, 0.00,60.00,Thursday
135,315248537.63698363
3420,315248537.63698363
3738,103806983.08343196
2,12, 1,12, 0,10, 0.00,60.00,Thursday
135,268913523.9550818
3420,268913523.9550818
3738,89031271.69353126
2,12, 1,12, 0,11, 0.00,60.00,Thursday
135,260042706.89157876
3420,260042706.89157873
3738,67880274.4919995
2,12, 1,12, 0,12, 0.00,60.00,Thursday
135,272099029.04821455
3420,272099029.04821455
3738,61968222.87416753
2,12, 1,12, 0,13, 0.00,60.00,Thursday
135,292295308.26643324
3420,292295308.26643324
3738,54429357.140315905
2,12, 1,12, 0,14, 0.00,60.00,Thursday
135,283025349.6858651
3420,283025349.6858651
3738,50775105.033128016
2,12, 1,12, 0,15, 0.00,60.00,Thursday
135,267868303.23404303
3420,267868303.234043
3738,31871356.445009474
2,12, 1,12, 0,16, 0.00,60.00,Thursday
135,267735883.44113845
3420,267735883.44113845
3738,39628013.08678385
2,12, 1,12, 0,17, 0.00,60.00,Thursday
135,286341234.19396055
3420,286341234.1939605
3738,46296617.392818995
2,12, 1,12, 0,18, 0.00,60.00,Thursday
135,248564828.10753876
3420,248564828.10753876
3738,57089854.13550834
2,12, 1,12, 0,19, 0.00,60.00,Thursday
135,135982653.93821675
3420,135982653.93821675
3738,85941100.58098197
2,12, 1,12, 0,20, 0.00,60.00,Thursday
135,116224580.02001092
3420,116224580.02001092
3738,82972264.7190495
2,12, 1,12, 0,21, 0.00,60.00,Thursday
135,108438390.44280934
3420,108438390.44280934
3738,86372061.88374391
2,12, 1,12, 0,22, 0.00,60.00,Thursday
135,106573601.06522472
3420,106573601.06522477
3738,90231672.46957886
2,12, 1,12, 0,23, 0.00,60.00,Thursday
135,77772390.65670998
3420,77772390.65670998
3738,6791184.0
2,12, 1,12, 0,24, 0.00,60.00,Thursday
135,72442274.24247962
3420,72442274.24247962
3738,6791184.0
2,13, 1,13, 0, 1, 0.00,60.00,Friday
135,57996196.7332391
3420,57996196.7332391
3738,6791184.0
2,13, 1,13, 0, 2, 0.00,60.00,Friday
135,57609860.1137362