Program Version,EnergyPlus, Version 9.6.0-f420c06a69, YMD=2022.07.16 15:00
1,5,Environment Title[],Latitude[deg],Longitude[deg],Time Zone[],Elevation[m]
2,8,Day of Simulation[],Month[],Day of Month[],DST Indicator[1=yes 0=no],Hour[],StartMinute[],EndMinute[],DayType
3,5,Cumulative Day of Simulation[],Month[],Day of Month[],DST Indicator[1=yes 0=no],DayType  ! When Daily Meters Requested
4,2,Cumulative Days of Simulation[],Month[]  ! When Monthly Meters Requested
5,1,Cumulative Days of Simulation[] ! When Run Period Meters Requested
6,1,Calendar Year of Simulation[] ! When Annual Meters Requested
135,1,Electricity:Facility [J] !Hourly
3420,1,ElectricityNet:Facility [J] !Hourly
3738,1,NaturalGas:Facility [J] !Hourly
End of Data Dictionary
1,RUNPERIOD 1,  35.04,-106.62,  -7.00,1619.00
2,1, 1, 1, 0, 1, 0.00,60.00,Holiday
135,46359074.93593144
3420,46359074.93593143
3738,6791184.0
2,1, 1, 1, 0, 2, 0.00,60.00,Holiday
135,46359235.70955593
3420,46359235.709555924
3738,6791184.0
2,1, 1, 1, 0, 3, 0.00,60.00,Holiday
135,46359235.70955593
3420,46359235.709555924
3738,6791184.0
2,1, 1, 1, 0, 4, 0.00,60.00,Holiday
135,46359235.70955593
3420,46359235.709555924
3738,6791184.0
2,1, 1, 1, 0, 5, 0.00,60.00,Holiday
135,46359235.70955593
3420,46359235.709555924
3738,6791184.0
2,1, 1, 1, 0, 6, 0.00,60.00,Holiday
135,46359235.70955593
3420,46359235.709555924
3738,6791184.0
2,1, 1, 1, 0, 7, 0.00,60.00,Holiday
135,66032185.73006148
3420,66032185.73006148
3738,6791184.0
2,1, 1, 1, 0, 8, 0.00,60.00,Holiday
135,50074623.774579875
3420,50074623.774579875
3738,6791184.0
2,1, 1, 1, 0, 9, 0.00,60.00,Holiday
135,46351708.9331394
3420,46351708.9331394
3738,6791184.0
2,1, 1, 1, 0,10, 0.00,60.00,Holiday
135,46288813.17904917
3420,46288813.179049164
3738,6791184.0
2,1, 1, 1, 0,11, 0.00,60.00,Holiday
135,51149014.50787013
3420,51149014.50787013
3738,6791184.0
2,1, 1, 1, 0,12, 0.00,60.00,Holiday
135,53542591.30173427
3420,53542591.30173427
3738,6791184.0
2,1, 1, 1, 0,13, 0.00,60.00,Holiday
135,54827857.64153222
3420,54827857.64153222
3738,6791184.0
2,1, 1, 1, 0,14, 0.00,60.00,Holiday
135,61196507.52122828
3420,61196507.5212283
3738,6791184.0
2,1, 1, 1, 0,15, 0.00,60.00,Holiday
135,67239153.60782859
3420,67239153.60782859
3738,6791184.0
2,1, 1, 1, 0,16, 0.00,60.00,Holiday
135,64721412.807741076
3420,64721412.80774109
3738,6791184.0
2,1, 1, 1, 0,17, 0.00,60.00,Holiday
135,55473596.479658276
3420,55473596.479658276
3738,6791184.0
2,1, 1, 1, 0,18, 0.00,60.00,Holiday
135,66905826.86107348
3420,66905826.86107348
3738,6791184.0
2,1, 1, 1, 0,19, 0.00,60.00,Holiday
135,57105773.81922845
3420,57105773.81922844
3738,6791184.0
2,1, 1, 1, 0,20, 0.00,60.00,Holiday
135,48904615.70955593
3420,48904615.70955593
3738,6791184.0
2,1, 1, 1, 0,21, 0.00,60.00,Holiday
135,48904615.70955593
3420,48904615.70955593
3738,6791184.0
2,1, 1, 1, 0,22, 0.00,60.00,Holiday
135,48904615.70955593
3420,48904615.70955593
3738,6791184.0
2,1, 1, 1, 0,23, 0.00,60.00,Holiday
135,48904615.70955593
3420,48904615.70955593
3738,6791184.0
2,1, 1, 1, 0,24, 0.00,60.00,Holiday
135,48904615.70955593
3420,48904615.70955593
3738,6791184.0
2,2, 1, 2, 0, 1, 0.00,60.00,Monday
135,57609860.1137362
3420,57609860.1137362
3738,6791184.0
2,2, 1, 2, 0, 2, 0.00,60.00,Monday
135,57609860.1137362
3420,57609860.1137362
3738,6791184.0
2,2, 1, 2, 0, 3, 0.00,60.00,Monday
135,57609860.1137362
3420,57609860.1137362
3738,6791184.0
2,2, 1, 2, 0, 4, 0.00,60.00,Monday
135,57609860.1137362
3420,57609860.1137362
3738,6791184.0
2,2, 1, 2, 0, 5, 0.00,60.00,Monday
135,57609860.1137362
3420,57609860.1137362
3738,6791184.0
2,2, 1, 2, 0, 6, 0.00,60.00,Monday
135,57609860.1137362
3420,57609860.1137362
3738,6791184.0
2,2, 1, 2, 0, 7, 0.00,60.00,Monday
135,127996825.63454857
3420,127996825.63454857
3738,6791184.0
2,2, 1, 2, 0, 8, 0.00,60.00,Monday
135,215776918.25572556
3420,215776918.25572553
3738,138020718.205081
2,2, 1, 2, 0, 9, 0.00,60.00,Monday
135,308779831.98790205
3420,308779831.98790205
3738,82873177.66038454
2,2, 1, 2, 0,10, 0.00,60.00,Monday
135,272391633.6877966
3420,272391633.68779653
3738,53951717.89646106
2,2, 1, 2, 0,11, 0.00,60.00,Monday
135,270626858.73905873
3420,270626858.73905873
3738,16290746.029742379
2,2, 1, 2, 0,12, 0.00,60.00,Monday
135,289695713.59204376
3420,289695713.59204376
3738,20876788.629584327
2,2, 1, 2, 0,13, 0.00,60.00,Monday
135,291132855.59700644
3420,291132855.59700644
3738,31334466.06780298
2,2, 1, 2, 0,14, 0.00,60.00,Monday
135,308021486.08789706
3420,308021486.08789706
3738,26165957.600102253
2,2, 1, 2, 0,15, 0.00,60.00,Monday
135,301222934.61526537
3420,301222934.6152653
3738,16608219.527592774
2,2, 1, 2, 0,16, 0.00,60.00,Monday
135,306260640.67507416
3420,306260640.67507416
3738,19132384.55082509
2,2, 1, 2, 0,17, 0.00,60.00,Monday
135,303775473.3403636
3420,303775473.34036356
3738,20696667.15605069
2,2, 1, 2, 0,18, 0.00,60.00,Monday
135,238144633.47194412
3420,238144633.4719441
3738,19995254.898005724
2,2, 1, 2, 0,19, 0.00,60.00,Monday
135,130915817.59055667
3420,130915817.59055667
3738,46965666.73843971
2,2, 1, 2, 0,20, 0.00,60.00,Monday
135,114591120.3768551
3420,114591120.3768551
3738,60485811.603654675
2,2, 1, 2, 0,21, 0.00,60.00,Monday
135,105863576.09982648
3420,105863576.09982648
3738,74237317.72791636
2,2, 1, 2, 0,22, 0.00,60.00,Monday
135,103011114.57527736
3420,103011114.57527736
3738,75836107.61545125
2,2, 1, 2, 0,23, 0.00,60.00,Monday
135,77772390.65670998
3420,77772390.65670998
3738,6791184.0
2,2, 1, 2, 0,24, 0.00,60.00,Monday
135,72442274.24247962
3420,72442274.24247962
3738,6791184.0
2,3, 1, 3, 0, 1, 0.00,60.00,Tuesday
135,57996196.7332391
3420,57996196.7332391
3738,6791184.0
2,3, 1, 3, 0, 2, 0.00,60.00,Tuesday
135,57609860.1137362
3420,57609860.1137362
3738,6791184.0
2,3, 1, 3, 0, 3, 0.00,60.00,Tuesday
135,57609860.1137362
3420,57609860.1137362
3738,6791184.0
2,3, 1, 3, 0, 4, 0.00,60.00,Tuesday
135,57609860.1137362
3420,57609860.1137362
3738,6791184.0
2,3, 1, 3, 0, 5, 0.00,60.00,Tuesday
135,57609860.1137362
3420,57609860.1137362
3738,6791184.0
2,3, 1, 3, 0, 6, 0.00,60.00,Tuesday
135,57609860.1137362
3420,57609860.1137362
3738,6791184.0
2,3, 1, 3, 0, 7, 0.00,60.00,Tuesday
135,106931257.37472215
3420,106931257.37472212
3738,6791184.0
2,3, 1, 3, 0, 8, 0.00,60.00,Tuesday
135,184734841.1423446
3420,184734841.1423446
3738,120832959.7297068
2,3, 1, 3, 0, 9, 0.00,60.00,Tuesday
135,312265575.62436616
3420,312265575.62436616
3738,68892671.80928904
2,3, 1, 3, 0,10, 0.00,60.00,Tuesday
135,279812349.24392164
3420,279812349.24392164
3738,27777781.23698724
2,3, 1, 3, 0,11, 0.00,60.00,Tuesday
135,278334900.0313619
3420,278334900.0313619
3738,9295933.261404604
2,3, 1, 3, 0,12, 0.00,60.00,Tuesday
135,290684622.63813865
3420,290684622.63813865
3738,23542259.622301124
2,3, 1, 3, 0,13, 0.00,60.00,Tuesday
135,290073427.60944575
3420,290073427.60944575
3738,31314670.33408197
2,3, 1, 3, 0,14, 0.00,60.00,Tuesday
135,311174944.21262676
3420,311174944.21262676
3738,26173987.99966827
2,3, 1, 3, 0,15, 0.00,60.00,Tuesday
135,304966823.9567958
3420,304966823.95679575
3738,20136318.258841217
2,3, 1, 3, 0,16, 0.00,60.00,Tuesday
135,309054752.76813424
3420,309054752.7681342
3738,15643327.510827746
2,3, 1, 3, 0,17, 0.00,60.00,Tuesday
135,309940042.67176265
3420,309940042.67176265
3738,20680908.056054913
2,3, 1, 3, 0,18, 0.00,60.00,Tuesday
135,242680258.7493111
3420,242680258.7493111
3738,16251871.944199989
2,3, 1, 3, 0,19, 0.00,60.00,Tuesday
135,132069713.17156494
3420,132069713.17156494
3738,26106541.95556266
2,3, 1, 3, 0,20, 0.00,60.00,Tuesday
135,113569604.38930234
3420,113569604.38930234
3738,44462398.210499495
2,3, 1, 3, 0,21, 0.00,60.00,Tuesday
135,102910895.06207252
3420,102910895.06207252
3738,53926673.13748605
2,3, 1, 3, 0,22, 0.00,60.00,Tuesday
135,98770175.473992
3420,98770175.47399203
3738,83388411.44147202
2,3, 1, 3, 0,23, 0.00,60.00,Tuesday
135,77772390.65670998
3420,77772390.65670998
3738,6791184.0
2,3, 1, 3, 0,24, 0.00,60.00,Tuesday
135,72442274.24247962
3420,72442274.24247962
3738,6791184.0
2,4, 1, 4, 0, 1, 0.00,60.00,Wednesday
135,57996196.7332391
3420,57996196.7332391
3738,6791184.0
2,4, 1, 4, 0, 2, 0.00,60.00,Wednesday
135,57609860.1137362
3420,57609860.1137362
3738,6791184.0
2,4, 1, 4, 0, 3, 0.00,60.00,Wednesday
135,57609860.1137362
3420,57609860.1137362
3738,6791184.0
2,4, 1, 4, 0, 4, 0.00,60.00,Wednesday
135,57609860.1137362
3420,57609860.1137362
3738,6791184.0
2,4, 1, 4, 0, 5, 0.00,60.00,Wednesday
135,57609860.1137362
3420,57609860.1137362
3738,6791184.0
2,4, 1, 4, 0, 6, 0.00,60.00,Wednesday
135,57609860.1137362
3420,57609860.1137362
3738,6791184.0
2,4, 1, 4, 0, 7, 0.00,60.00,Wednesday
135,103755454.93082415
3420,103755454.93082415
3738,6791184.0
2,4, 1, 4, 0, 8, 0.00,60.00,Wednesday
135,184491004.4643848
3420,184491004.4643848
3738,139683752.67577988
2,4, 1, 4, 0, 9, 0.00,60.00,Wednesday
135,309257276.77714854
3420,309257276.7771486
3738,83095029.78652705
2,4, 1, 4, 0,10, 0.00,60.00,Wednesday
135,272185113.924669
3420,272185113.924669
3738,54652377.40591665
2,4, 1, 4, 0,11, 0.00,60.00,Wednesday
135,266550562.08486056
3420,266550562.0848605
3738,34899162.16140272
2,4, 1, 4, 0,12, 0.00,60.00,Wednesday
135,281292242.9374631
3420,281292242.937463
3738,23607985.38142342
2,4, 1, 4, 0,13, 0.00,60.00,Wednesday
135,285973572.2964015
3420,285973572.29640144
3738,31348798.230013758
2,4, 1, 4, 0,14, 0.00,60.00,Wednesday
135,292517489.6756735
3420,292517489.6756735
3738,26188383.070569854
2,4, 1, 4, 0,15, 0.00,60.00,Wednesday
135,278936139.3508474
3420,278936139.3508474
3738,20127398.59969132
2,4, 1, 4, 0,16, 0.00,60.00,Wednesday
135,276955145.5425564
3420,276955145.54255635
3738,15653031.314340789
2,4, 1, 4, 0,17, 0.00,60.00,Wednesday
135,295961521.3481208
3420,295961521.34812075
3738,25318407.256185487
2,4, 1, 4, 0,18, 0.00,60.00,Wednesday
135,249790251.11624223
3420,249790251.11624217
3738,14864476.667762557
2,4, 1, 4, 0,19, 0.00,60.00,Wednesday
135,132103039.86723197
3420,132103039.86723197
3738,28501881.551320106
2,4, 1, 4, 0,20, 0.00,60.00,Wednesday
135,113569604.38930234
3420,113569604.38930234
3738,41762766.323415086
2,4, 1, 4, 0,21, 0.00,60.00,Wednesday
135,102910895.06207252
3420,102910895.06207252
3738,55301881.79344201
2,4, 1, 4, 0,22, 0.00,60.00,Wednesday
135,98267997.61519502
3420,98267997.61519504
3738,67012577.12525496
2,4, 1, 4, 0,23, 0.00,60.00,Wednesday
135,77772390.65670998
3420,77772390.65670998
3738,6791184.0
2,4, 1, 4, 0,24, 0.00,60.00,Wednesday
135,72442274.24247962
3420,72442274.24247962
3738,6791184.0
2,5, 1, 5, 0, 1, 0.00,60.00,Thursday
135,57996196.7332391
3420,57996196.7332391
3738,6791184.0
2,5, 1, 5, 0, 2, 0.00,60.00,Thursday
135,57609860.1137362
3420,57609860.1137362
3738,6791184.0
2,5, 1, 5, 0, 3, 0.00,60.00,Thursday
135,57609860.1137362
3420,57609860.1137362
3738,6791184.0
2,5, 1, 5, 0, 4, 0.00,60.00,Thursday
135,57609860.1137362
3420,57609860.1137362
3738,6791184.0
2,5, 1, 5, 0, 5, 0.00,60.00,Thursday
135,57609860.1137362
3420,57609860.1137362
3738,6791184.0
2,5, 1, 5, 0, 6, 0.00,60.00,Thursday
135,57609860.1137362
3420,57609860.1137362
3738,6791184.0
2,5, 1, 5, 0, 7, 0.00,60.00,Thursday
135,97735623.67105103
3420,97735623.67105103
3738,6791184.0
2,5, 1, 5, 0, 8, 0.00,60.00,Thursday
135,173100768.07654965
3420,173100768.07654962
3738,110910429.20140871
2,5, 1, 5, 0, 9, 0.00,60.00,Thursday
135,311205020.1220606
3420,311205020.12206054
3738,58843916.725474425
2,5, 1, 5, 0,10, 0.00,60.00,Thursday
135,280658060.50632495
3420,280658060.50632495
3738,15412325.557579566
2,5, 1, 5, 0,11, 0.00,60.00,Thursday
135,279876095.09554434
3420,279876095.09554434
3738,11332836.2691178
2,5, 1, 5, 0,12, 0.00,60.00,Thursday
135,292294718.72825456
3420,292294718.72825456
3738,20890598.102329075
2,5, 1, 5, 0,13, 0.00,60.00,Thursday
135,295353791.6656956
3420,295353791.6656956
3738,31321004.3765677
2,5, 1, 5, 0,14, 0.00,60.00,Thursday
135,319223258.974726
3420,319223258.97472596
3738,26189196.296384312
2,5, 1, 5, 0,15, 0.00,60.00,Thursday
135,312672400.9007701
3420,312672400.90077007
3738,20204811.237831824
2,5, 1, 5, 0,16, 0.00,60.00,Thursday
135,316597340.3147546
3420,316597340.3147545
3738,15641997.033621151
2,5, 1, 5, 0,17, 0.00,60.00,Thursday
135,319340311.9371281
3420,319340311.93712807
3738,25321918.178624112
2,5, 1, 5, 0,18, 0.00,60.00,Thursday
135,245783236.8655186
3420,245783236.8655186
3738,11104752.592050675
2,5, 1, 5, 0,19, 0.00,60.00,Thursday
135,132919744.28767565
3420,132919744.28767565
3738,13944577.741628896
2,5, 1, 5, 0,20, 0.00,60.00,Thursday
135,113569604.38930234
3420,113569604.38930234
3738,28354982.546491858
2,5, 1, 5, 0,21, 0.00,60.00,Thursday
135,102910895.06207252
3420,102910895.06207252
3738,39815667.571056575
2,5, 1, 5, 0,22, 0.00,60.00,Thursday
135,98267997.61519502
3420,98267997.61519504
3738,53897902.32273879
2,5, 1, 5, 0,23, 0.00,60.00,Thursday
135,77772390.65670998
3420,77772390.65670998
3738,6791184.0
2,5, 1, 5, 0,24, 0.00,60.00,Thursday
135,72442274.24247962
3420,72442274.24247962
3738,6791184.0
2,6, 1, 6, 0, 1, 0.00,60.00,Friday
135,57996196.7332391
3420,57996196.7332391
3738,6791184.0
2,6, 1, 6, 0, 2, 0.00,60.00,Friday
135,57609860.1137362
3420,57609860.1137362
3738,6791184.0
2,6, 1, 6, 0, 3, 0.00,60.00,Friday
135,57609860.1137362
3420,57609860.1137362
3738,6791184.0
2,6, 1, 6, 0, 4, 0.00,60.00,Friday
135,57609860.1137362
3420,57609860.1137362
3738,6791184.0
2,6, 1, 6, 0, 5, 0.00,60.00,Friday
135,57609860.1137362
3420,57609860.1137362
3738,6791184.0
2,6, 1, 6, 0, 6, 0.00,60.00,Friday
135,57609860.1137362
3420,57609860.1137362
3738,6791184.0
2,6, 1, 6, 0, 7, 0.00,60.00,Friday
135,100874498.80210993
3420,100874498.80210996
3738,6791184.0
2,6, 1, 6, 0, 8, 0.00,60.00,Friday
135,185012151.70365253
3420,185012151.7036525
3738,115173439.34392655
2,6, 1, 6, 0, 9, 0.00,60.00,Friday
135,311864635.2464785
3420,311864635.2464785
3738,82718883.24284047
2,6, 1, 6, 0,10, 0.00,60.00,Friday
135,270760642.5463952
3420,270760642.5463952
3738,75199093.02771139
2,6, 1, 6, 0,11, 0.00,60.00,Friday
135,263574249.679065
3420,263574249.679065
3738,64362356.05111039
2,6, 1, 6, 0,12, 0.00,60.00,Friday
135,282489219.14205617
3420,282489219.1420561
3738,40890408.34959051
2,6, 1, 6, 0,13, 0.00,60.00,Friday
135,291679706.9357716
3420,291679706.9357716
3738,28107688.715244368
2,6, 1, 6, 0,14, 0.00,60.00,Friday
135,308364873.5263972
3420,308364873.52639717
3738,27356336.420592025
2,6, 1, 6, 0,15, 0.00,60.00,Friday
135,300805194.1093598
3420,300805194.1093597
3738,19100897.112360604
2,6, 1, 6, 0,16, 0.00,60.00,Friday
135,303617887.71532273
3420,303617887.7153227
3738,15649369.138671428
2,6, 1, 6, 0,17, 0.00,60.00,Friday
135,306388340.21204937
3420,306388340.21204937
3738,25587035.21034743
2,6, 1, 6, 0,18, 0.00,60.00,Friday
135,250711041.6343344
3420,250711041.63433442
3738,58699983.8003185
2,6, 1, 6, 0,19, 0.00,60.00,Friday
135,131427726.57333541
3420,131427726.57333541
3738,94187213.91672753
2,6, 1, 6, 0,20, 0.00,60.00,Friday
135,113662700.38715811
3420,113662700.3871581
3738,100078076.43786404
2,6, 1, 6, 0,21, 0.00,60.00,Friday
135,105105181.49181457
3420,105105181.4918146
3738,119949294.62690657
2,6, 1, 6, 0,22, 0.00,60.00,Friday
135,101969226.32741793
3420,101969226.32741795
3738,120456754.93169422
2,6, 1, 6, 0,23, 0.00,60.00,Friday
135,77772390.65670998
3420,77772390.65670998
3738,6791184.0
2,6, 1, 6, 0,24, 0.00,60.00,Friday
135,72442274.24247962
3420,72442274.24247962
3738,6791184.0
2,7, 1, 7, 0, 1, 0.00,60.00,Saturday
135,46745513.81922844
3420,46745513.81922843
3738,6791184.0
2,7, 1, 7, 0, 2, 0.00,60.00,Saturday
135,46359235.70955593
3420,46359235.709555924
3738,6791184.0
2,7, 1, 7, 0, 3, 0.00,60.00,Saturday
135,46359235.70955593
3420,46359235.709555924
3738,6791184.0
2,7, 1, 7, 0, 4, 0.00,60.00,Saturday
135,46359235.70955593
3420,46359235.709555924
3738,6791184.0
2,7, 1, 7, 0, 5, 0.00,60.00,Saturday
135,46359235.70955593
3420,46359235.709555924
3738,6791184.0
2,7, 1, 7, 0, 6, 0.00,60.00,Saturday
135,46359235.70955593
3420,46359235.709555924
3738,6791184.0
2,7, 1, 7, 0, 7, 0.00,60.00,Saturday
135,116679795.36576116
3420,116679795.36576116
3738,6791184.0
2,7, 1, 7, 0, 8, 0.00,60.00,Saturday
135,148413437.40953138
3420,148413437.40953138
3738,147806452.89231974
2,7, 1, 7, 0, 9, 0.00,60.00,Saturday
135,137283977.24106675
3420,137283977.24106675
3738,127685804.76113354
2,7, 1, 7, 0,10, 0.00,60.00,Saturday
135,137250342.2397555
3420,137250342.2397555
3738,110759383.75527868
2,7, 1, 7, 0,11, 0.00,60.00,Saturday
135,129342654.39831647
3420,129342654.39831647
3738,79021294.84669974
2,7, 1, 7, 0,12, 0.00,60.00,Saturday
135,138157584.83469597
3420,138157584.83469597
3738,34583827.6337567
2,7, 1, 7, 0,13, 0.00,60.00,Saturday
135,97694749.42722508
3420,97694749.42722508
3738,19557587.724648587
2,7, 1, 7, 0,14, 0.00,60.00,Saturday
135,86586326.3110732
3420,86586326.3110732
3738,18416797.39952893
2,7, 1, 7, 0,15, 0.00,60.00,Saturday
135,80777988.06353001
3420,80777988.06353001
3738,15708140.79396592
2,7, 1, 7, 0,16, 0.00,60.00,Saturday
135,76302625.30399539
3420,76302625.30399539
3738,22477622.69838916
2,7, 1, 7, 0,17, 0.00,60.00,Saturday
135,79371260.90501446
3420,79371260.90501447
3738,31473946.782321125
2,7, 1, 7, 0,18, 0.00,60.00,Saturday
135,83077160.33306564
3420,83077160.33306564
3738,46083418.665152825
2,7, 1, 7, 0,19, 0.00,60.00,Saturday
135,66276703.53612528
3420,66276703.53612528
3738,6791184.0
2,7, 1, 7, 0,20, 0.00,60.00,Saturday
135,49290893.81922844
3420,49290893.81922844
3738,6791184.0
2,7, 1, 7, 0,21, 0.00,60.00,Saturday
135,48904615.70955593
3420,48904615.70955593
3738,6791184.0
2,7, 1, 7, 0,22, 0.00,60.00,Saturday
135,48904615.70955593
3420,48904615.70955593
3738,6791184.0
2,7, 1, 7, 0,23, 0.00,60.00,Saturday
135,48904615.70955593
3420,48904615.70955593
3738,6791184.0
2,7, 1, 7, 0,24, 0.00,60.00,Saturday
135,48904615.70955593
3420,48904615.70955593
3738,6791184.0
2,8, 1, 8, 0, 1, 0.00,60.00,Sunday
135,46359235.70955593
3420,46359235.709555924
3738,6791184.0
2,8, 1, 8, 0, 2, 0.00,60.00,Sunday
135,46359235.70955593
3420,46359235.709555924
3738,6791184.0
2,8, 1, 8, 0, 3, 0.00,60.00,Sunday
135,46359235.70955593
3420,46359235.709555924
3738,6791184.0
2,8, 1, 8, 0, 4, 0.00,60.00,Sunday
135,46359235.70955593
3420,46359235.709555924
3738,6791184.0
2,8, 1, 8, 0, 5, 0.00,60.00,Sunday
135,46359235.70955593
3420,46359235.709555924
3738,6791184.0
2,8, 1, 8, 0, 6, 0.00,60.00,Sunday
135,46359235.70955593
3420,46359235.709555924
3738,6791184.0
2,8, 1, 8, 0, 7, 0.00,60.00,Sunday
135,66032185.73006148
3420,66032185.73006148
3738,6791184.0
2,8, 1, 8, 0, 8, 0.00,60.00,Sunday
135,53323580.330645084
3420,53323580.330645084
3738,6791184.0
2,8, 1, 8, 0, 9, 0.00,60.00,Sunday
135,46344166.24829911
3420,46344166.24829911
3738,6791184.0
2,8, 1, 8, 0,10, 0.00,60.00,Sunday
135,46288812.51597283
3420,46288812.51597283
3738,6791184.0
2,8, 1, 8, 0,11, 0.00,60.00,Sunday
135,47486344.533771604
3420,47486344.5337716
3738,6791184.0
2,8, 1, 8, 0,12, 0.00,60.00,Sunday
135,51523828.55039037
3420,51523828.55039038
3738,6791184.0
2,8, 1, 8, 0,13, 0.00,60.00,Sunday
135,53596286.410490006
3420,53596286.410490006
3738,6791184.0
2,8, 1, 8, 0,14, 0.00,60.00,Sunday
135,54374414.54384567
3420,54374414.54384567
3738,6791184.0
2,8, 1, 8, 0,15, 0.00,60.00,Sunday
135,53675980.56524746
3420,53675980.565247476
3738,6791184.0
2,8, 1, 8, 0,16, 0.00,60.00,Sunday
135,55529427.180795304
3420,55529427.180795304
3738,6791184.0
2,8, 1, 8, 0,17, 0.00,60.00,Sunday
135,49445322.02006607
3420,49445322.02006607
3738,6791184.0
2,8, 1, 8, 0,18, 0.00,60.00,Sunday
135,66276671.30593526
3420,66276671.30593526
3738,6791184.0
2,8, 1, 8, 0,19, 0.00,60.00,Sunday
135,57105773.81922845
3420,57105773.81922844
3738,6791184.0
2,8, 1, 8, 0,20, 0.00,60.00,Sunday
135,48904615.70955593
3420,48904615.70955593
3738,6791184.0
2,8, 1, 8, 0,21, 0.00,60.00,Sunday
135,48904615.70955593
3420,48904615.70955593
3738,6791184.0
2,8, 1, 8, 0,22, 0.00,60.00,Sunday
135,48904615.70955593
3420,48904615.70955593
3738,6791184.0
2,8, 1, 8, 0,23, 0.00,60.00,Sunday
135,48904615.70955593
3420,48904615.70955593
3738,6791184.0
2,8, 1, 8, 0,24, 0.00,60.00,Sunday
135,48904615.70955593
3420,48904615.70955593
3738,6791184.0
2,9, 1, 9, 0, 1, 0.00,60.00,Monday
135,57609860.1137362
3420,57609860.1137362
3738,6791184.0
2,9, 1, 9, 0, 2, 0.00,60.00,Monday
135,57609860.1137362
3420,57609860.1137362
3738,6791184.0
2,9, 1, 9, 0, 3, 0.00,60.00,Monday
135,57609860.1137362
3420,57609860.1137362
3738,6791184.0
2,9, 1, 9, 0, 4, 0.00,60.00,Monday
135,57609860.1137362
3420,57609860.1137362
3738,6791184.0
2,9, 1, 9, 0, 5, 0.00,60.00,Monday
135,57609860.1137362
3420,57609860.1137362
3738,6791184.0
2,9, 1, 9, 0, 6, 0.00,60.00,Monday
135,57609860.1137362
3420,57609860.1137362
3738,6791184.0
2,9, 1, 9, 0, 7, 0.00,60.00,Monday
135,127564614.39464009
3420,127564614.39464009
3738,6791184.0
2,9, 1, 9, 0, 8, 0.00,60.00,Monday
135,216458610.35820606
3420,216458610.35820603
3738,128124340.15029298
2,9, 1, 9, 0, 9, 0.00,60.00,Monday
135,314311323.26073325
3420,314311323.26073325
3738,77807525.43886489
2,9, 1, 9, 0,10, 0.00,60.00,Monday
135,275022543.35198957
3420,275022543.3519895
3738,51488723.020706624
2,9, 1, 9, 0,11, 0.00,60.00,Monday
135,271385117.1343337
3420,271385117.13433367
3738,16332254.961402778
2,9, 1, 9, 0,12, 0.00,60.00,Monday
135,286154101.6038143
3420,286154101.60381424
3738,20903858.248392854
2,9, 1, 9, 0,13, 0.00,60.00,Monday
135,285123368.07077384
3420,285123368.07077384
3738,31355574.402596906
2,9, 1, 9, 0,14, 0.00,60.00,Monday
135,300417099.31767035
3420,300417099.31767035
3738,26214926.285167918
2,9, 1, 9, 0,15, 0.00,60.00,Monday
135,295646211.4297171
3420,295646211.429717
3738,20131559.13681179
2,9, 1, 9, 0,16, 0.00,60.00,Monday
135,304322187.8659875
3420,304322187.8659874
3738,15659343.739956092
2,9, 1, 9, 0,17, 0.00,60.00,Monday
135,313156207.9201727
3420,313156207.92017263
3738,25336254.390748605
2,9, 1, 9, 0,18, 0.00,60.00,Monday
135,241709937.9974962
3420,241709937.99749616
3738,11407591.37367653
2,9, 1, 9, 0,19, 0.00,60.00,Monday
135,131903994.49648854
3420,131903994.49648854
3738,26290581.76170262
2,9, 1, 9, 0,20, 0.00,60.00,Monday
135,113569604.38930234
3420,113569604.38930234
3738,34246733.29173867
2,9, 1, 9, 0,21, 0.00,60.00,Monday
135,103541210.5221865
3420,103541210.52218652
3738,24212272.066963196
2,9, 1, 9, 0,22, 0.00,60.00,Monday
135,100205575.07196173
3420,100205575.07196176
3738,31350801.061261963
2,9, 1, 9, 0,23, 0.00,60.00,Monday
135,77772390.65670998
3420,77772390.65670998
3738,6791184.0
2,9, 1, 9, 0,24, 0.00,60.00,Monday
135,72442274.24247962
3420,72442274.24247962
3738,6791184.0
2,10, 1,10, 0, 1, 0.00,60.00,Tuesday
135,57996196.7332391
3420,57996196.7332391
3738,6791184.0
2,10, 1,10, 0, 2, 0.00,60.00,Tuesday
135,57609860.1137362
3420,57609860.1137362
3738,6791184.0
2,10, 1,10, 0, 3, 0.00,60.00,Tuesday
135,57609860.1137362
3420,57609860.1137362
3738,6791184.0
2,10, 1,10, 0, 4, 0.00,60.00,Tuesday
135,57609860.1137362
3420,57609860.1137362
3738,6791184.0
2,10, 1,10, 0, 5, 0.00,60.00,Tuesday
135,57609860.1137362
3420,57609860.1137362
3738,6791184.0
2,10, 1,10, 0, 6, 0.00,60.00,Tuesday
135,57609860.1137362
3420,57609860.1137362
3738,6791184.0
2,10, 1,10, 0, 7, 0.00,60.00,Tuesday
135,110714282.24399118
3420,110714282.24399118
3738,6791184.0
2,10, 1,10, 0, 8, 0.00,60.00,Tuesday
135,190975152.15214536
3420,190975152.1521454
3738,142188102.21108124
2,10, 1,10, 0, 9, 0.00,60.00,Tuesday
135,308524419.6460679
3420,308524419.6460679
3738,91176594.64014344
2,10, 1,10, 0,10, 0.00,60.00,Tuesday
135,270021662.76126075
3420,270021662.76126075
3738,69684276.09163505
2,10, 1,10, 0,11, 0.00,60.00,Tuesday
135,262648135.4978873
3420,262648135.4978873
3738,59553149.68737306
2,10, 1,10, 0,12, 0.00,60.00,Tuesday
135,272416426.1989681
3420,272416426.19896805
3738,70082550.65749209
2,10, 1,10, 0,13, 0.00,60.00,Tuesday
135,289086493.40403074
3420,289086493.40403074
3738,51729768.5512531
2,10, 1,10, 0,14, 0.00,60.00,Tuesday
135,288753783.40560794
3420,288753783.40560794
3738,32955863.517327268
2,10, 1,10, 0,15, 0.00,60.00,Tuesday
135,280785269.0967063
3420,280785269.0967063
3738,16044293.923582599
2,10, 1,10, 0,16, 0.00,60.00,Tuesday
135,282685774.78113705
3420,282685774.78113693
3738,17480852.302340448
2,10, 1,10, 0,17, 0.00,60.00,Tuesday
135,294811056.21467483
3420,294811056.21467483
3738,23433078.275698885
2,10, 1,10, 0,18, 0.00,60.00,Tuesday
135,250099688.02444804
3420,250099688.024448
3738,34140522.23791174
2,10, 1,10, 0,19, 0.00,60.00,Tuesday
135,130964385.66727158
3420,130964385.66727158
3738,71283650.43144639
2,10, 1,10, 0,20, 0.00,60.00,Tuesday
135,113572023.64918047
3420,113572023.64918047
3738,75428476.06689847
2,10, 1,10, 0,21, 0.00,60.00,Tuesday
135,103888446.40188593
3420,103888446.40188594
3738,84988630.9315177
2,10, 1,10, 0,22, 0.00,60.00,Tuesday
135,102209746.8755285
3420,102209746.8755285
3738,97908846.20405173
2,10, 1,10, 0,23, 0.00,60.00,Tuesday
135,77772390.65670998
3420,77772390.65670998
3738,6791184.0
2,10, 1,10, 0,24, 0.00,60.00,Tuesday
135,72442274.24247962
3420,72442274.24247962
3738,6791184.0
2,11, 1,11, 0, 1, 0.00,60.00,Wednesday
135,57996196.7332391
3420,57996196.7332391
3738,6791184.0
2,11, 1,11, 0, 2, 0.00,60.00,Wednesday
135,57609860.1137362
3420,57609860.1137362
3738,6791184.0
2,11, 1,11, 0, 3, 0.00,60.00,Wednesday
135,57609860.1137362
3420,57609860.1137362
3738,6791184.0
2,11, 1,11, 0, 4, 0.00,60.00,Wednesday
135,57609860.1137362
3420,57609860.1137362
3738,6791184.0
2,11, 1,11, 0, 5, 0.00,60.00,Wednesday
135,57609860.1137362
3420,57609860.1137362
3738,6791184.0
2,11, 1,11, 0, 6, 0.00,60.00,Wednesday
135,57609860.1137362
3420,57609860.1137362
3738,6791184.0
2,11, 1,11, 0, 7, 0.00,60.00,Wednesday
135,106188195.35893458
3420,106188195.35893458
3738,6791184.0
2,11, 1,11, 0, 8, 0.00,60.00,Wednesday
135,184584781.68351108
3420,184584781.68351108
3738,83308376.93624544
2,11, 1,11, 0, 9, 0.00,60.00,Wednesday
135,303289455.82689834
3420,303289455.82689834
3738,57767633.22388372
2,11, 1,11, 0,10, 0.00,60.00,Wednesday
135,267387338.02308217
3420,267387338.02308217
3738,42548309.09919422
2,11, 1,11, 0,11, 0.00,60.00,Wednesday
135,261953545.60350162
3420,261953545.60350156
3738,16032756.77443956
2,11, 1,11, 0,12, 0.00,60.00,Wednesday
135,270712080.4674347
3420,270712080.46743464
3738,26191848.098877072
2,11, 1,11, 0,13, 0.00,60.00,Wednesday
135,273518559.55169326
3420,273518559.5516932
3738,37189905.696153805
2,11, 1,11, 0,14, 0.00,60.00,Wednesday
135,274008051.2032061
3420,274008051.2032061
3738,28237660.431624573
2,11, 1,11, 0,15, 0.00,60.00,Wednesday
135,259987464.19988698
3420,259987464.19988695
3738,20141605.369989604
2,11, 1,11, 0,16, 0.00,60.00,Wednesday
135,260286819.25694442
3420,260286819.25694436
3738,23134709.19396392
2,11, 1,11, 0,17, 0.00,60.00,Wednesday
135,277399014.5612267
3420,277399014.5612267
3738,51671873.556712195
2,11, 1,11, 0,18, 0.00,60.00,Wednesday
135,241900324.8049915
3420,241900324.8049915
3738,56494135.16593364
2,11, 1,11, 0,19, 0.00,60.00,Wednesday
135,131650262.65519571
3420,131650262.65519568
3738,82153342.90431063
2,11, 1,11, 0,20, 0.00,60.00,Wednesday
135,113642179.86593206
3420,113642179.86593205
3738,91593727.17019509
2,11, 1,11, 0,21, 0.00,60.00,Wednesday
135,104352426.99650003
3420,104352426.99650003
3738,91223573.34823996
2,11, 1,11, 0,22, 0.00,60.00,Wednesday
135,101880488.20492859
3420,101880488.20492859
3738,102028312.75040877
2,11, 1,11, 0,23, 0.00,60.00,Wednesday
135,77772390.65670998
3420,77772390.65670998
3738,6791184.0
2,11, 1,11, 0,24, 0.00,60.00,Wednesday
135,72442274.24247962
3420,72442274.24247962
3738,6791184.0
2,12, 1,12, 0, 1, 0.00,60.00,Thursday
135,57996196.7332391
3420,57996196.7332391
3738,6791184.0
2,12, 1,12, 0, 2, 0.00,60.00,Thursday
135,57609860.1137362
3420,57609860.1137362
3738,6791184.0
2,12, 1,12, 0, 3, 0.00,60.00,Thursday
135,57609860.1137362
3420,57609860.1137362
3738,6791184.0
2,12, 1,12, 0, 4, 0.00,60.00,Thursday
135,57609860.1137362
3420,57609860.1137362
3738,6791184.0
2,12, 1,12, 0, 5, 0.00,60.00,Thursday
135,57609860.1137362
3420,57609860.1137362
3738,6791184.0
2,12, 1,12, 0, 6, 0.00,60.00,Thursday
135,57609860.1137362
3420,57609860.1137362
3738,6791184.0
2,12, 1,12, 0, 7, 0.00,60.00,Thursday
135,109429394.89500341
3420,109429394.89500344
3738,6791184.0
2,12, 1,12, 0, 8, 0.00,60.00,Thursday
135,189605475.53359127
3420,189605475.53359127
3738,131516501.18114561
2,12, 1,12, 0, 9, 0.00,60.00,Thursday
135,310569649.6298056
3420,310569649.6298057
3738,85727618.00970997
2,12, 1,12, 0,10, 0.00,60.00,Thursday
135,269386858.2483603
3420,269386858.2483603
3738,73319979.48611288
2,12, 1,12, 0,11, 0.00,60.00,Thursday
135,263245078.2623451
3420,263245078.26234508
3738,56754961.49478242
2,12, 1,12, 0,12, 0.00,60.00,Thursday
135,275380949.29380524
3420,275380949.29380524
3738,50196882.26761191
2,12, 1,12, 0,13, 0.00,60.00,Thursday
135,292300605.33835894
3420,292300605.33835894
3738,42452890.03643215
2,12, 1,12, 0,14, 0.00,60.00,Thursday
135,286172818.82464397
3420,286172818.8246439
3738,37544161.96665865
2,12, 1,12, 0,15, 0.00,60.00,Thursday
135,270621979.5961142
3420,270621979.59611416
3738,19102409.410375893
2,12, 1,12, 0,16, 0.00,60.00,Thursday
135,270452024.4912733
3420,270452024.4912732
3738,26990139.340611458
2,12, 1,12, 0,17, 0.00,60.00,Thursday
135,289037146.2811463
3420,289037146.2811463
3738,34417220.78865281
2,12, 1,12, 0,18, 0.00,60.00,Thursday
135,250869060.17066333
3420,250869060.17066333
3738,49687092.70067136
2,12, 1,12, 0,19, 0.00,60.00,Thursday
135,132561984.8008913
3420,132561984.80089131
3738,73609039.12252395
2,12, 1,12, 0,20, 0.00,60.00,Thursday
135,113569604.38930234
3420,113569604.38930234
3738,71389230.5169057
2,12, 1,12, 0,21, 0.00,60.00,Thursday
135,103867304.29044732
3420,103867304.29044732
3738,75105986.1468344
2,12, 1,12, 0,22, 0.00,60.00,Thursday
135,100953422.53475842
3420,100953422.53475843
3738,77682833.5396212
2,12, 1,12, 0,23, 0.00,60.00,Thursday
135,77772390.65670998
3420,77772390.65670998
3738,6791184.0
2,12, 1,12, 0,24, 0.00,60.00,Thursday
135,72442274.24247962
3420,72442274.24247962
3738,6791184.0
2,13, 1,13, 0, 1, 0.00,60.00,Friday
135,57996196.7332391
3420,57996196.7332391