Program Version,EnergyPlus, Version 9.6.0-f420c06a69, YMD=2022.07.06 16:41
1,5,Environment Title[],Latitude[deg],Longitude[deg],Time Zone[],Elevation[m]
2,8,Day of Simulation[],Month[],Day of Month[],DST Indicator[1=yes 0=no],Hour[],StartMinute[],EndMinute[],DayType
3,5,Cumulative Day of Simulation[],Month[],Day of Month[],DST Indicator[1=yes 0=no],DayType  ! When Daily Meters Requested
4,2,Cumulative Days of Simulation[],Month[]  ! When Monthly Meters Requested
5,1,Cumulative Days of Simulation[] ! When Run Period Meters Requested
6,1,Calendar Year of Simulation[] ! When Annual Meters Requested
135,1,Electricity:Facility [J] !Hourly
3420,1,ElectricityNet:Facility [J] !Hourly
3738,1,NaturalGas:Facility [J] !Hourly
End of Data Dictionary
1,RUNPERIOD 1,  35.04,-106.62,  -7.00,1619.00
2,1, 1, 1, 0, 1, 0.00,60.00,Holiday
135,46359074.93593144
3420,46359074.93593143
3738,6791184.0
2,1, 1, 1, 0, 2, 0.00,60.00,Holiday
135,46359235.70955593
3420,46359235.709555924
3738,6791184.0
2,1, 1, 1, 0, 3, 0.00,60.00,Holiday
135,46359235.70955593
3420,46359235.709555924
3738,6791184.0
2,1, 1, 1, 0, 4, 0.00,60.00,Holiday
135,46359235.70955593
3420,46359235.709555924
3738,6791184.0
2,1, 1, 1, 0, 5, 0.00,60.00,Holiday
135,46359235.70955593
3420,46359235.709555924
3738,6791184.0
2,1, 1, 1, 0, 6, 0.00,60.00,Holiday
135,46359235.70955593
3420,46359235.709555924
3738,6791184.0
2,1, 1, 1, 0, 7, 0.00,60.00,Holiday
135,66032185.73006148
3420,66032185.73006148
3738,6791184.0
2,1, 1, 1, 0, 8, 0.00,60.00,Holiday
135,50074623.774579875
3420,50074623.774579875
3738,6791184.0
2,1, 1, 1, 0, 9, 0.00,60.00,Holiday
135,46351708.9331394
3420,46351708.9331394
3738,6791184.0
2,1, 1, 1, 0,10, 0.00,60.00,Holiday
135,46288813.17904917
3420,46288813.179049164
3738,6791184.0
2,1, 1, 1, 0,11, 0.00,60.00,Holiday
135,50556028.58634514
3420,50556028.58634514
3738,6791184.0
2,1, 1, 1, 0,12, 0.00,60.00,Holiday
135,53620061.07971074
3420,53620061.07971075
3738,6791184.0
2,1, 1, 1, 0,13, 0.00,60.00,Holiday
135,54251377.4482968
3420,54251377.44829681
3738,6791184.0
2,1, 1, 1, 0,14, 0.00,60.00,Holiday
135,58744815.664830714
3420,58744815.66483073
3738,6791184.0
2,1, 1, 1, 0,15, 0.00,60.00,Holiday
135,64652365.25448359
3420,64652365.25448359
3738,6791184.0
2,1, 1, 1, 0,16, 0.00,60.00,Holiday
135,62671968.53224909
3420,62671968.53224909
3738,6791184.0
2,1, 1, 1, 0,17, 0.00,60.00,Holiday
135,54610940.42094375
3420,54610940.42094375
3738,6791184.0
2,1, 1, 1, 0,18, 0.00,60.00,Holiday
135,66905826.86107348
3420,66905826.86107348
3738,6791184.0
2,1, 1, 1, 0,19, 0.00,60.00,Holiday
135,57105773.81922845
3420,57105773.81922844
3738,6791184.0
2,1, 1, 1, 0,20, 0.00,60.00,Holiday
135,48904615.70955593
3420,48904615.70955593
3738,6791184.0
2,1, 1, 1, 0,21, 0.00,60.00,Holiday
135,48904615.70955593
3420,48904615.70955593
3738,6791184.0
2,1, 1, 1, 0,22, 0.00,60.00,Holiday
135,48904615.70955593
3420,48904615.70955593
3738,6791184.0
2,1, 1, 1, 0,23, 0.00,60.00,Holiday
135,48904615.70955593
3420,48904615.70955593
3738,6791184.0
2,1, 1, 1, 0,24, 0.00,60.00,Holiday
135,48904615.70955593
3420,48904615.70955593
3738,6791184.0
2,2, 1, 2, 0, 1, 0.00,60.00,Monday
135,57609860.1137362
3420,57609860.1137362
3738,6791184.0
2,2, 1, 2, 0, 2, 0.00,60.00,Monday
135,57609860.1137362
3420,57609860.1137362
3738,6791184.0
2,2, 1, 2, 0, 3, 0.00,60.00,Monday
135,57609860.1137362
3420,57609860.1137362
3738,6791184.0
2,2, 1, 2, 0, 4, 0.00,60.00,Monday
135,57609860.1137362
3420,57609860.1137362
3738,6791184.0
2,2, 1, 2, 0, 5, 0.00,60.00,Monday
135,57609860.1137362
3420,57609860.1137362
3738,6791184.0
2,2, 1, 2, 0, 6, 0.00,60.00,Monday
135,57609860.1137362
3420,57609860.1137362
3738,6791184.0
2,2, 1, 2, 0, 7, 0.00,60.00,Monday
135,134878218.9732619
3420,134878218.97326186
3738,6791184.0
2,2, 1, 2, 0, 8, 0.00,60.00,Monday
135,224447349.34681612
3420,224447349.34681612
3738,144051788.3317502
2,2, 1, 2, 0, 9, 0.00,60.00,Monday
135,310113173.5226268
3420,310113173.52262676
3738,88876839.65152809
2,2, 1, 2, 0,10, 0.00,60.00,Monday
135,271365063.6523837
3420,271365063.6523836
3738,60265923.85270449
2,2, 1, 2, 0,11, 0.00,60.00,Monday
135,268042805.41555253
3420,268042805.41555253
3738,22324186.92765486
2,2, 1, 2, 0,12, 0.00,60.00,Monday
135,288256589.4717232
3420,288256589.4717232
3738,20876794.54329522
2,2, 1, 2, 0,13, 0.00,60.00,Monday
135,289626908.83261126
3420,289626908.83261126
3738,31334423.78333511
2,2, 1, 2, 0,14, 0.00,60.00,Monday
135,304560312.7598077
3420,304560312.75980777
3738,26165958.14784857
2,2, 1, 2, 0,15, 0.00,60.00,Monday
135,297207055.59561163
3420,297207055.5956117
3738,16649506.089210246
2,2, 1, 2, 0,16, 0.00,60.00,Monday
135,301765850.1485542
3420,301765850.1485542
3738,19089949.697671723
2,2, 1, 2, 0,17, 0.00,60.00,Monday
135,300883689.7626623
3420,300883689.7626623
3738,20696611.81849547
2,2, 1, 2, 0,18, 0.00,60.00,Monday
135,237763786.45298475
3420,237763786.45298478
3738,22828722.127478585
2,2, 1, 2, 0,19, 0.00,60.00,Monday
135,131185250.1779861
3420,131185250.1779861
3738,54000351.72755138
2,2, 1, 2, 0,20, 0.00,60.00,Monday
135,115788227.31176195
3420,115788227.31176195
3738,68630236.21559957
2,2, 1, 2, 0,21, 0.00,60.00,Monday
135,107180701.07736793
3420,107180701.07736793
3738,80740475.22169581
2,2, 1, 2, 0,22, 0.00,60.00,Monday
135,104935694.04120313
3420,104935694.04120316
3738,82360406.46165311
2,2, 1, 2, 0,23, 0.00,60.00,Monday
135,77772390.65670998
3420,77772390.65670998
3738,6791184.0
2,2, 1, 2, 0,24, 0.00,60.00,Monday
135,72442274.24247962
3420,72442274.24247962
3738,6791184.0
2,3, 1, 3, 0, 1, 0.00,60.00,Tuesday
135,57996196.7332391
3420,57996196.7332391
3738,6791184.0
2,3, 1, 3, 0, 2, 0.00,60.00,Tuesday
135,57609860.1137362
3420,57609860.1137362
3738,6791184.0
2,3, 1, 3, 0, 3, 0.00,60.00,Tuesday
135,57609860.1137362
3420,57609860.1137362
3738,6791184.0
2,3, 1, 3, 0, 4, 0.00,60.00,Tuesday
135,57609860.1137362
3420,57609860.1137362
3738,6791184.0
2,3, 1, 3, 0, 5, 0.00,60.00,Tuesday
135,57609860.1137362
3420,57609860.1137362
3738,6791184.0
2,3, 1, 3, 0, 6, 0.00,60.00,Tuesday
135,57609860.1137362
3420,57609860.1137362
3738,6791184.0
2,3, 1, 3, 0, 7, 0.00,60.00,Tuesday
135,110246891.9321736
3420,110246891.9321736
3738,6791184.0
2,3, 1, 3, 0, 8, 0.00,60.00,Tuesday
135,189787777.19002396
3420,189787777.19002393
3738,127893569.43827754
2,3, 1, 3, 0, 9, 0.00,60.00,Tuesday
135,311735474.6462774
3420,311735474.64627737
3738,74048611.90492582
2,3, 1, 3, 0,10, 0.00,60.00,Tuesday
135,277285498.1859546
3420,277285498.1859546
3738,33473696.454957783
2,3, 1, 3, 0,11, 0.00,60.00,Tuesday
135,276669119.4453627
3420,276669119.44536257
3738,11005409.7709702
2,3, 1, 3, 0,12, 0.00,60.00,Tuesday
135,294510040.65947235
3420,294510040.65947235
3738,23274910.85150368
2,3, 1, 3, 0,13, 0.00,60.00,Tuesday
135,296008760.87337774
3420,296008760.87337774
3738,31313196.53816751
2,3, 1, 3, 0,14, 0.00,60.00,Tuesday
135,312459596.2197046
3420,312459596.2197046
3738,26179341.570204668
2,3, 1, 3, 0,15, 0.00,60.00,Tuesday
135,300132587.72396576
3420,300132587.72396576
3738,20134709.813017763
2,3, 1, 3, 0,16, 0.00,60.00,Tuesday
135,303905456.6083193
3420,303905456.6083192
3738,15642458.513267582
2,3, 1, 3, 0,17, 0.00,60.00,Tuesday
135,306143708.642809
3420,306143708.6428089
3738,20958292.106283188
2,3, 1, 3, 0,18, 0.00,60.00,Tuesday
135,241887659.15678734
3420,241887659.15678728
3738,17408500.555825397
2,3, 1, 3, 0,19, 0.00,60.00,Tuesday
135,131936317.85543132
3420,131936317.85543132
3738,31714708.765812345
2,3, 1, 3, 0,20, 0.00,60.00,Tuesday
135,113569604.38930234
3420,113569604.38930234
3738,51650092.05562477
2,3, 1, 3, 0,21, 0.00,60.00,Tuesday
135,102910895.06207252
3420,102910895.06207252
3738,60710470.68437332
2,3, 1, 3, 0,22, 0.00,60.00,Tuesday
135,99700727.8095243
3420,99700727.80952433
3738,89792459.07201333
2,3, 1, 3, 0,23, 0.00,60.00,Tuesday
135,77772390.65670998
3420,77772390.65670998
3738,6791184.0
2,3, 1, 3, 0,24, 0.00,60.00,Tuesday
135,72442274.24247962
3420,72442274.24247962
3738,6791184.0
2,4, 1, 4, 0, 1, 0.00,60.00,Wednesday
135,57996196.7332391
3420,57996196.7332391
3738,6791184.0
2,4, 1, 4, 0, 2, 0.00,60.00,Wednesday
135,57609860.1137362
3420,57609860.1137362
3738,6791184.0
2,4, 1, 4, 0, 3, 0.00,60.00,Wednesday
135,57609860.1137362
3420,57609860.1137362
3738,6791184.0
2,4, 1, 4, 0, 4, 0.00,60.00,Wednesday
135,57609860.1137362
3420,57609860.1137362
3738,6791184.0
2,4, 1, 4, 0, 5, 0.00,60.00,Wednesday
135,57609860.1137362
3420,57609860.1137362
3738,6791184.0
2,4, 1, 4, 0, 6, 0.00,60.00,Wednesday
135,57609860.1137362
3420,57609860.1137362
3738,6791184.0
2,4, 1, 4, 0, 7, 0.00,60.00,Wednesday
135,106404852.69745946
3420,106404852.69745946
3738,6791184.0
2,4, 1, 4, 0, 8, 0.00,60.00,Wednesday
135,188565720.77044547
3420,188565720.77044547
3738,148199627.5746022
2,4, 1, 4, 0, 9, 0.00,60.00,Wednesday
135,309354701.0787325
3420,309354701.07873243
3738,87295595.8595211
2,4, 1, 4, 0,10, 0.00,60.00,Wednesday
135,271026351.7007154
3420,271026351.7007154
3738,59254591.49081121
2,4, 1, 4, 0,11, 0.00,60.00,Wednesday
135,265318671.5172772
3420,265318671.51727718
3738,39948447.48624557
2,4, 1, 4, 0,12, 0.00,60.00,Wednesday
135,279645244.1066742
3420,279645244.1066742
3738,25541763.37515947
2,4, 1, 4, 0,13, 0.00,60.00,Wednesday
135,285036500.36897314
3420,285036500.36897314
3738,31353602.7696282
2,4, 1, 4, 0,14, 0.00,60.00,Wednesday
135,290629157.2656715
3420,290629157.26567143
3738,26188331.429082308
2,4, 1, 4, 0,15, 0.00,60.00,Wednesday
135,275698394.6024771
3420,275698394.6024771
3738,20161876.121885322
2,4, 1, 4, 0,16, 0.00,60.00,Wednesday
135,275285544.04600096
3420,275285544.04600084
3738,15652007.06026261
2,4, 1, 4, 0,17, 0.00,60.00,Wednesday
135,294800603.31100076
3420,294800603.31100076
3738,25318932.609576892
2,4, 1, 4, 0,18, 0.00,60.00,Wednesday
135,251551302.099181
3420,251551302.099181
3738,23252772.69287883
2,4, 1, 4, 0,19, 0.00,60.00,Wednesday
135,131875044.92673558
3420,131875044.92673558
3738,43226197.13243389
2,4, 1, 4, 0,20, 0.00,60.00,Wednesday
135,113569604.38930234
3420,113569604.38930234
3738,59855883.12971689
2,4, 1, 4, 0,21, 0.00,60.00,Wednesday
135,102937729.48095942
3420,102937729.48095942
3738,74757158.53519425
2,4, 1, 4, 0,22, 0.00,60.00,Wednesday
135,99292894.84189291
3420,99292894.84189293
3738,87521387.93811633
2,4, 1, 4, 0,23, 0.00,60.00,Wednesday
135,77772390.65670998
3420,77772390.65670998
3738,6791184.0
2,4, 1, 4, 0,24, 0.00,60.00,Wednesday
135,72442274.24247962
3420,72442274.24247962
3738,6791184.0
2,5, 1, 5, 0, 1, 0.00,60.00,Thursday
135,57996196.7332391
3420,57996196.7332391
3738,6791184.0
2,5, 1, 5, 0, 2, 0.00,60.00,Thursday
135,57609860.1137362
3420,57609860.1137362
3738,6791184.0
2,5, 1, 5, 0, 3, 0.00,60.00,Thursday
135,57609860.1137362
3420,57609860.1137362
3738,6791184.0
2,5, 1, 5, 0, 4, 0.00,60.00,Thursday
135,57609860.1137362
3420,57609860.1137362
3738,6791184.0
2,5, 1, 5, 0, 5, 0.00,60.00,Thursday
135,57609860.1137362
3420,57609860.1137362
3738,6791184.0
2,5, 1, 5, 0, 6, 0.00,60.00,Thursday
135,57609860.1137362
3420,57609860.1137362
3738,6791184.0
2,5, 1, 5, 0, 7, 0.00,60.00,Thursday
135,105211041.56303144
3420,105211041.56303144
3738,6791184.0
2,5, 1, 5, 0, 8, 0.00,60.00,Thursday
135,185084318.41194987
3420,185084318.41194987
3738,149772594.04802048
2,5, 1, 5, 0, 9, 0.00,60.00,Thursday
135,309775474.0238963
3420,309775474.0238963
3738,83938338.63842353
2,5, 1, 5, 0,10, 0.00,60.00,Thursday
135,275431387.18065
3420,275431387.18065
3738,39075303.84404674
2,5, 1, 5, 0,11, 0.00,60.00,Thursday
135,274344934.36556596
3420,274344934.36556596
3738,15198706.235173855
2,5, 1, 5, 0,12, 0.00,60.00,Thursday
135,288404116.8599751
3420,288404116.859975
3738,20890733.63871552
2,5, 1, 5, 0,13, 0.00,60.00,Thursday
135,288058765.46614546
3420,288058765.4661455
3738,31293131.721478388
2,5, 1, 5, 0,14, 0.00,60.00,Thursday
135,301016098.8005605
3420,301016098.8005605
3738,26194920.88059567
2,5, 1, 5, 0,15, 0.00,60.00,Thursday
135,289835840.7701992
3420,289835840.7701992
3738,20203079.403325845
2,5, 1, 5, 0,16, 0.00,60.00,Thursday
135,293011504.28776586
3420,293011504.28776574
3738,15641061.864178369
2,5, 1, 5, 0,17, 0.00,60.00,Thursday
135,306882860.58799326
3420,306882860.58799326
3738,25322169.426228657
2,5, 1, 5, 0,18, 0.00,60.00,Thursday
135,247025420.44834
3420,247025420.44834003
3738,17832187.82518751
2,5, 1, 5, 0,19, 0.00,60.00,Thursday
135,131246373.44685495
3420,131246373.44685495
3738,45672389.68821704
2,5, 1, 5, 0,20, 0.00,60.00,Thursday
135,113569604.38930234
3420,113569604.38930234
3738,74005985.33859801
2,5, 1, 5, 0,21, 0.00,60.00,Thursday
135,103110336.73101011
3420,103110336.73101011
3738,86617183.73241699
2,5, 1, 5, 0,22, 0.00,60.00,Thursday
135,100205290.59039602
3420,100205290.59039602
3738,103403389.56832835
2,5, 1, 5, 0,23, 0.00,60.00,Thursday
135,77772390.65670998
3420,77772390.65670998
3738,6791184.0
2,5, 1, 5, 0,24, 0.00,60.00,Thursday
135,72442274.24247962
3420,72442274.24247962
3738,6791184.0
2,6, 1, 6, 0, 1, 0.00,60.00,Friday
135,57996196.7332391
3420,57996196.7332391
3738,6791184.0
2,6, 1, 6, 0, 2, 0.00,60.00,Friday
135,57609860.1137362
3420,57609860.1137362
3738,6791184.0
2,6, 1, 6, 0, 3, 0.00,60.00,Friday
135,57609860.1137362
3420,57609860.1137362
3738,6791184.0
2,6, 1, 6, 0, 4, 0.00,60.00,Friday
135,57609860.1137362
3420,57609860.1137362
3738,6791184.0
2,6, 1, 6, 0, 5, 0.00,60.00,Friday
135,57609860.1137362
3420,57609860.1137362
3738,6791184.0
2,6, 1, 6, 0, 6, 0.00,60.00,Friday
135,57609860.1137362
3420,57609860.1137362
3738,6791184.0
2,6, 1, 6, 0, 7, 0.00,60.00,Friday
135,114329292.8640337
3420,114329292.8640337
3738,6791184.0
2,6, 1, 6, 0, 8, 0.00,60.00,Friday
135,210689432.82065395
3420,210689432.82065392
3738,167509026.32535166
2,6, 1, 6, 0, 9, 0.00,60.00,Friday
135,320447094.3824741
3420,320447094.3824741
3738,112608271.3710629
2,6, 1, 6, 0,10, 0.00,60.00,Friday
135,272243262.42517936
3420,272243262.42517924
3738,109945228.40611373
2,6, 1, 6, 0,11, 0.00,60.00,Friday
135,259533942.50344297
3420,259533942.5034429
3738,92384377.31824228
2,6, 1, 6, 0,12, 0.00,60.00,Friday
135,273155002.9713413
3420,273155002.9713413
3738,77979605.29473196
2,6, 1, 6, 0,13, 0.00,60.00,Friday
135,284587342.0764032
3420,284587342.0764032
3738,41777197.76927357
2,6, 1, 6, 0,14, 0.00,60.00,Friday
135,295217294.5372172
3420,295217294.5372172
3738,29976181.39285042
2,6, 1, 6, 0,15, 0.00,60.00,Friday
135,288182139.8469095
3420,288182139.8469095
3738,15682420.006187368
2,6, 1, 6, 0,16, 0.00,60.00,Friday
135,289789435.8189523
3420,289789435.8189522
3738,20079097.599814348
2,6, 1, 6, 0,17, 0.00,60.00,Friday
135,295931161.43963534
3420,295931161.4396353
3738,29102655.97246335
2,6, 1, 6, 0,18, 0.00,60.00,Friday
135,248341934.40229076
3420,248341934.40229073
3738,75189482.92916392
2,6, 1, 6, 0,19, 0.00,60.00,Friday
135,131980683.31269082
3420,131980683.31269082
3738,108831699.3837192
2,6, 1, 6, 0,20, 0.00,60.00,Friday
135,116812530.03702654
3420,116812530.03702655
3738,111269364.66908425
2,6, 1, 6, 0,21, 0.00,60.00,Friday
135,109465264.23111129
3420,109465264.2311113
3738,126788515.39870825
2,6, 1, 6, 0,22, 0.00,60.00,Friday
135,106943485.90675917
3420,106943485.90675917
3738,123522609.91873442
2,6, 1, 6, 0,23, 0.00,60.00,Friday
135,77772390.65670998
3420,77772390.65670998
3738,6791184.0
2,6, 1, 6, 0,24, 0.00,60.00,Friday
135,72442274.24247962
3420,72442274.24247962
3738,6791184.0
2,7, 1, 7, 0, 1, 0.00,60.00,Saturday
135,46745513.81922844
3420,46745513.81922843
3738,6791184.0
2,7, 1, 7, 0, 2, 0.00,60.00,Saturday
135,46359235.70955593
3420,46359235.709555924
3738,6791184.0
2,7, 1, 7, 0, 3, 0.00,60.00,Saturday
135,46359235.70955593
3420,46359235.709555924
3738,6791184.0
2,7, 1, 7, 0, 4, 0.00,60.00,Saturday
135,46359235.70955593
3420,46359235.709555924
3738,6791184.0
2,7, 1, 7, 0, 5, 0.00,60.00,Saturday
135,46359235.70955593
3420,46359235.709555924
3738,6791184.0
2,7, 1, 7, 0, 6, 0.00,60.00,Saturday
135,46359235.70955593
3420,46359235.709555924
3738,6791184.0
2,7, 1, 7, 0, 7, 0.00,60.00,Saturday
135,120310881.38315275
3420,120310881.38315274
3738,6791184.0
2,7, 1, 7, 0, 8, 0.00,60.00,Saturday
135,157449524.45011568
3420,157449524.45011565
3738,142611365.79855904
2,7, 1, 7, 0, 9, 0.00,60.00,Saturday
135,140668560.30216074
3420,140668560.30216074
3738,124868558.99745527
2,7, 1, 7, 0,10, 0.00,60.00,Saturday
135,139328045.0032671
3420,139328045.0032671
3738,110544358.50915076
2,7, 1, 7, 0,11, 0.00,60.00,Saturday
135,130294514.28956108
3420,130294514.28956106
3738,81410827.97055307
2,7, 1, 7, 0,12, 0.00,60.00,Saturday
135,137313308.35249135
3420,137313308.35249135
3738,39839639.931273535
2,7, 1, 7, 0,13, 0.00,60.00,Saturday
135,96669023.47066496
3420,96669023.47066498
3738,24451817.152267486
2,7, 1, 7, 0,14, 0.00,60.00,Saturday
135,86580571.2954265
3420,86580571.2954265
3738,25398435.912411056
2,7, 1, 7, 0,15, 0.00,60.00,Saturday
135,80777988.06353001
3420,80777988.06353001
3738,22848857.427631155
2,7, 1, 7, 0,16, 0.00,60.00,Saturday
135,76893828.1664046
3420,76893828.16640462
3738,31061433.171242967
2,7, 1, 7, 0,17, 0.00,60.00,Saturday
135,80489040.59945646
3420,80489040.59945647
3738,39668380.52682573
2,7, 1, 7, 0,18, 0.00,60.00,Saturday
135,83077160.33306564
3420,83077160.33306564
3738,52932284.09950543
2,7, 1, 7, 0,19, 0.00,60.00,Saturday
135,66276703.53612528
3420,66276703.53612528
3738,6791184.0
2,7, 1, 7, 0,20, 0.00,60.00,Saturday
135,49290893.81922844
3420,49290893.81922844
3738,6791184.0
2,7, 1, 7, 0,21, 0.00,60.00,Saturday
135,48904615.70955593
3420,48904615.70955593
3738,6791184.0
2,7, 1, 7, 0,22, 0.00,60.00,Saturday
135,48904615.70955593
3420,48904615.70955593
3738,6791184.0
2,7, 1, 7, 0,23, 0.00,60.00,Saturday
135,48904615.70955593
3420,48904615.70955593
3738,6791184.0
2,7, 1, 7, 0,24, 0.00,60.00,Saturday
135,48904615.70955593
3420,48904615.70955593
3738,6791184.0
2,8, 1, 8, 0, 1, 0.00,60.00,Sunday
135,46359235.70955593
3420,46359235.709555924
3738,6791184.0
2,8, 1, 8, 0, 2, 0.00,60.00,Sunday
135,46359235.70955593
3420,46359235.709555924
3738,6791184.0
2,8, 1, 8, 0, 3, 0.00,60.00,Sunday
135,46359235.70955593
3420,46359235.709555924
3738,6791184.0
2,8, 1, 8, 0, 4, 0.00,60.00,Sunday
135,46359235.70955593
3420,46359235.709555924
3738,6791184.0
2,8, 1, 8, 0, 5, 0.00,60.00,Sunday
135,46359235.70955593
3420,46359235.709555924
3738,6791184.0
2,8, 1, 8, 0, 6, 0.00,60.00,Sunday
135,46359235.70955593
3420,46359235.709555924
3738,6791184.0
2,8, 1, 8, 0, 7, 0.00,60.00,Sunday
135,66032185.73006148
3420,66032185.73006148
3738,6791184.0
2,8, 1, 8, 0, 8, 0.00,60.00,Sunday
135,53323580.330645084
3420,53323580.330645084
3738,6791184.0
2,8, 1, 8, 0, 9, 0.00,60.00,Sunday
135,46344166.24829911
3420,46344166.24829911
3738,6791184.0
2,8, 1, 8, 0,10, 0.00,60.00,Sunday
135,46288812.51597283
3420,46288812.51597283
3738,6791184.0
2,8, 1, 8, 0,11, 0.00,60.00,Sunday
135,46780078.0190766
3420,46780078.0190766
3738,6791184.0
2,8, 1, 8, 0,12, 0.00,60.00,Sunday
135,50764732.82892756
3420,50764732.82892756
3738,6791184.0
2,8, 1, 8, 0,13, 0.00,60.00,Sunday
135,53639776.326378144
3420,53639776.32637815
3738,6791184.0
2,8, 1, 8, 0,14, 0.00,60.00,Sunday
135,54262761.51150982
3420,54262761.51150982
3738,6791184.0
2,8, 1, 8, 0,15, 0.00,60.00,Sunday
135,53612947.75456621
3420,53612947.75456621
3738,6791184.0
2,8, 1, 8, 0,16, 0.00,60.00,Sunday
135,53812302.196168214
3420,53812302.19616823
3738,6791184.0
2,8, 1, 8, 0,17, 0.00,60.00,Sunday
135,50712986.615543395
3420,50712986.615543395
3738,6791184.0
2,8, 1, 8, 0,18, 0.00,60.00,Sunday
135,66276671.30593526
3420,66276671.30593526
3738,6791184.0
2,8, 1, 8, 0,19, 0.00,60.00,Sunday
135,57105773.81922845
3420,57105773.81922844
3738,6791184.0
2,8, 1, 8, 0,20, 0.00,60.00,Sunday
135,48904615.70955593
3420,48904615.70955593
3738,6791184.0
2,8, 1, 8, 0,21, 0.00,60.00,Sunday
135,48904615.70955593
3420,48904615.70955593
3738,6791184.0
2,8, 1, 8, 0,22, 0.00,60.00,Sunday
135,48904615.70955593
3420,48904615.70955593
3738,6791184.0
2,8, 1, 8, 0,23, 0.00,60.00,Sunday
135,48904615.70955593
3420,48904615.70955593
3738,6791184.0
2,8, 1, 8, 0,24, 0.00,60.00,Sunday
135,48904615.70955593
3420,48904615.70955593
3738,6791184.0
2,9, 1, 9, 0, 1, 0.00,60.00,Monday
135,57609860.1137362
3420,57609860.1137362
3738,6791184.0
2,9, 1, 9, 0, 2, 0.00,60.00,Monday
135,57609860.1137362
3420,57609860.1137362
3738,6791184.0
2,9, 1, 9, 0, 3, 0.00,60.00,Monday
135,57609860.1137362
3420,57609860.1137362
3738,6791184.0
2,9, 1, 9, 0, 4, 0.00,60.00,Monday
135,57609860.1137362
3420,57609860.1137362
3738,6791184.0
2,9, 1, 9, 0, 5, 0.00,60.00,Monday
135,57609860.1137362
3420,57609860.1137362
3738,6791184.0
2,9, 1, 9, 0, 6, 0.00,60.00,Monday
135,57609860.1137362
3420,57609860.1137362
3738,6791184.0
2,9, 1, 9, 0, 7, 0.00,60.00,Monday
135,134114866.8449538
3420,134114866.8449538
3738,6791184.0
2,9, 1, 9, 0, 8, 0.00,60.00,Monday
135,226457972.09066823
3420,226457972.0906682
3738,135933683.27152896
2,9, 1, 9, 0, 9, 0.00,60.00,Monday
135,315059111.5607859
3420,315059111.5607859
3738,82593846.75440338
2,9, 1, 9, 0,10, 0.00,60.00,Monday
135,273811375.4320959
3420,273811375.4320959
3738,57896154.77975541
2,9, 1, 9, 0,11, 0.00,60.00,Monday
135,268677391.5171998
3420,268677391.5171998
3738,22755147.185632404
2,9, 1, 9, 0,12, 0.00,60.00,Monday
135,286055739.0123844
3420,286055739.0123844
3738,20903854.29180768
2,9, 1, 9, 0,13, 0.00,60.00,Monday
135,284350632.9158318
3420,284350632.9158318
3738,31355573.89341751
2,9, 1, 9, 0,14, 0.00,60.00,Monday
135,296964915.7958729
3420,296964915.7958729
3738,26217229.669014465
2,9, 1, 9, 0,15, 0.00,60.00,Monday
135,290599229.6170174
3420,290599229.6170174
3738,20171197.933540877
2,9, 1, 9, 0,16, 0.00,60.00,Monday
135,298789960.6936177
3420,298789960.69361764
3738,15658042.54193755
2,9, 1, 9, 0,17, 0.00,60.00,Monday
135,308912890.19694436
3420,308912890.19694436
3738,25336619.139327023
2,9, 1, 9, 0,18, 0.00,60.00,Monday
135,240335200.2664308
3420,240335200.26643077
3738,12651463.60680731
2,9, 1, 9, 0,19, 0.00,60.00,Monday
135,131778009.181878
3420,131778009.181878
3738,32423259.3266905
2,9, 1, 9, 0,20, 0.00,60.00,Monday
135,114025277.53645541
3420,114025277.53645541
3738,41748545.59840524
2,9, 1, 9, 0,21, 0.00,60.00,Monday
135,105037150.41895148
3420,105037150.41895148
3738,31479556.700990032
2,9, 1, 9, 0,22, 0.00,60.00,Monday
135,102073063.12020108
3420,102073063.12020108
3738,38565836.98125465
2,9, 1, 9, 0,23, 0.00,60.00,Monday
135,77772390.65670998
3420,77772390.65670998
3738,6791184.0
2,9, 1, 9, 0,24, 0.00,60.00,Monday
135,72442274.24247962
3420,72442274.24247962
3738,6791184.0
2,10, 1,10, 0, 1, 0.00,60.00,Tuesday
135,57996196.7332391
3420,57996196.7332391
3738,6791184.0
2,10, 1,10, 0, 2, 0.00,60.00,Tuesday
135,57609860.1137362
3420,57609860.1137362
3738,6791184.0
2,10, 1,10, 0, 3, 0.00,60.00,Tuesday
135,57609860.1137362
3420,57609860.1137362
3738,6791184.0
2,10, 1,10, 0, 4, 0.00,60.00,Tuesday
135,57609860.1137362
3420,57609860.1137362
3738,6791184.0
2,10, 1,10, 0, 5, 0.00,60.00,Tuesday
135,57609860.1137362
3420,57609860.1137362
3738,6791184.0
2,10, 1,10, 0, 6, 0.00,60.00,Tuesday
135,57609860.1137362
3420,57609860.1137362
3738,6791184.0
2,10, 1,10, 0, 7, 0.00,60.00,Tuesday
135,114253642.62737627
3420,114253642.62737627
3738,6791184.0
2,10, 1,10, 0, 8, 0.00,60.00,Tuesday
135,197349730.92832193
3420,197349730.9283219
3738,149363821.7802675
2,10, 1,10, 0, 9, 0.00,60.00,Tuesday
135,308165925.0182386
3420,308165925.0182386
3738,96046486.60760099
2,10, 1,10, 0,10, 0.00,60.00,Tuesday
135,268523586.95901006
3420,268523586.95901
3738,74727169.44655398
2,10, 1,10, 0,11, 0.00,60.00,Tuesday
135,260906645.93106708
3420,260906645.93106708
3738,64593817.29615069
2,10, 1,10, 0,12, 0.00,60.00,Tuesday
135,270703032.86780316
3420,270703032.8678031
3738,75388262.90395913
2,10, 1,10, 0,13, 0.00,60.00,Tuesday
135,290075727.7494003
3420,290075727.74940026
3738,58056747.817952596
2,10, 1,10, 0,14, 0.00,60.00,Tuesday
135,286685588.029857
3420,286685588.029857
3738,35677194.2689603
2,10, 1,10, 0,15, 0.00,60.00,Tuesday
135,278482917.7794173
3420,278482917.7794172
3738,15980527.148329757
2,10, 1,10, 0,16, 0.00,60.00,Tuesday
135,280675159.66202885
3420,280675159.66202885
3738,17552519.70167093
2,10, 1,10, 0,17, 0.00,60.00,Tuesday
135,292746361.0180291
3420,292746361.0180291
3738,23358750.945066325
2,10, 1,10, 0,18, 0.00,60.00,Tuesday
135,249809880.83978575
3420,249809880.83978575
3738,38466501.87982347
2,10, 1,10, 0,19, 0.00,60.00,Tuesday
135,130985949.06658593
3420,130985949.06658593
3738,78645136.85785726
2,10, 1,10, 0,20, 0.00,60.00,Tuesday
135,114055155.35276115
3420,114055155.35276115
3738,82339257.87233832
2,10, 1,10, 0,21, 0.00,60.00,Tuesday
135,105258856.84376554
3420,105258856.84376557
3738,91729834.29794596
2,10, 1,10, 0,22, 0.00,60.00,Tuesday
135,104316433.13917558
3420,104316433.13917561
3738,104619372.02230394
2,10, 1,10, 0,23, 0.00,60.00,Tuesday
135,77772390.65670998
3420,77772390.65670998
3738,6791184.0
2,10, 1,10, 0,24, 0.00,60.00,Tuesday
135,72442274.24247962
3420,72442274.24247962
3738,6791184.0
2,11, 1,11, 0, 1, 0.00,60.00,Wednesday
135,57996196.7332391
3420,57996196.7332391
3738,6791184.0
2,11, 1,11, 0, 2, 0.00,60.00,Wednesday
135,57609860.1137362
3420,57609860.1137362
3738,6791184.0
2,11, 1,11, 0, 3, 0.00,60.00,Wednesday
135,57609860.1137362
3420,57609860.1137362
3738,6791184.0
2,11, 1,11, 0, 4, 0.00,60.00,Wednesday
135,57609860.1137362
3420,57609860.1137362
3738,6791184.0
2,11, 1,11, 0, 5, 0.00,60.00,Wednesday
135,57609860.1137362
3420,57609860.1137362
3738,6791184.0
2,11, 1,11, 0, 6, 0.00,60.00,Wednesday
135,57609860.1137362
3420,57609860.1137362
3738,6791184.0
2,11, 1,11, 0, 7, 0.00,60.00,Wednesday
135,108839359.53781524
3420,108839359.53781526
3738,6791184.0
2,11, 1,11, 0, 8, 0.00,60.00,Wednesday
135,190090404.5536632
3420,190090404.5536632
3738,92005028.24389847
2,11, 1,11, 0, 9, 0.00,60.00,Wednesday
135,304321888.2690618
3420,304321888.2690618
3738,62547459.48617009
2,11, 1,11, 0,10, 0.00,60.00,Wednesday
135,267128888.1139896
3420,267128888.1139896
3738,48606554.84478949
2,11, 1,11, 0,11, 0.00,60.00,Wednesday
135,261132497.10537457
3420,261132497.10537452
3738,20967526.19570571
2,11, 1,11, 0,12, 0.00,60.00,Wednesday
135,269826020.24986887
3420,269826020.24986887
3738,29896835.206611905
2,11, 1,11, 0,13, 0.00,60.00,Wednesday
135,275095836.5592711
3420,275095836.559271
3738,43025890.54855857
2,11, 1,11, 0,14, 0.00,60.00,Wednesday
135,273644002.5201242
3420,273644002.5201242
3738,31509230.33491921
2,11, 1,11, 0,15, 0.00,60.00,Wednesday
135,259600660.07102746
3420,259600660.0710274
3738,22924009.89603995
2,11, 1,11, 0,16, 0.00,60.00,Wednesday
135,259924944.8485862
3420,259924944.84858617
3738,29025281.068168104
2,11, 1,11, 0,17, 0.00,60.00,Wednesday
135,277069984.84866726
3420,277069984.84866726
3738,57237472.11938658
2,11, 1,11, 0,18, 0.00,60.00,Wednesday
135,241896016.09278852
3420,241896016.09278858
3738,60828636.44280554
2,11, 1,11, 0,19, 0.00,60.00,Wednesday
135,131792102.5652866
3420,131792102.5652866
3738,89449849.79923272
2,11, 1,11, 0,20, 0.00,60.00,Wednesday
135,114183215.93046378
3420,114183215.93046378
3738,98366197.21129963
2,11, 1,11, 0,21, 0.00,60.00,Wednesday
135,105622917.12883963
3420,105622917.12883964
3738,97857464.71488811
2,11, 1,11, 0,22, 0.00,60.00,Wednesday
135,103891229.86782245
3420,103891229.86782248
3738,108341521.5977182
2,11, 1,11, 0,23, 0.00,60.00,Wednesday
135,77772390.65670998
3420,77772390.65670998
3738,6791184.0
2,11, 1,11, 0,24, 0.00,60.00,Wednesday
135,72442274.24247962
3420,72442274.24247962
3738,6791184.0
2,12, 1,12, 0, 1, 0.00,60.00,Thursday
135,57996196.7332391
3420,57996196.7332391
3738,6791184.0
2,12, 1,12, 0, 2, 0.00,60.00,Thursday
135,57609860.1137362
3420,57609860.1137362
3738,6791184.0
2,12, 1,12, 0, 3, 0.00,60.00,Thursday
135,57609860.1137362
3420,57609860.1137362
3738,6791184.0
2,12, 1,12, 0, 4, 0.00,60.00,Thursday
135,57609860.1137362
3420,57609860.1137362
3738,6791184.0
2,12, 1,12, 0, 5, 0.00,60.00,Thursday
135,57609860.1137362
3420,57609860.1137362
3738,6791184.0
2,12, 1,12, 0, 6, 0.00,60.00,Thursday
135,57609860.1137362
3420,57609860.1137362
3738,6791184.0
2,12, 1,12, 0, 7, 0.00,60.00,Thursday
135,112420302.5399498
3420,112420302.5399498
3738,6791184.0
2,12, 1,12, 0, 8, 0.00,60.00,Thursday
135,194833299.43822515
3420,194833299.43822515
3738,139014037.14188534
2,12, 1,12, 0, 9, 0.00,60.00,Thursday
135,310939586.1527123
3420,310939586.1527123
3738,90319837.51055998
2,12, 1,12, 0,10, 0.00,60.00,Thursday
135,268542381.00415426
3420,268542381.00415426
3738,77524674.81692365
2,12, 1,12, 0,11, 0.00,60.00,Thursday
135,261986772.23706126
3420,261986772.23706126
3738,61417654.38465312
2,12, 1,12, 0,12, 0.00,60.00,Thursday
135,274085077.4358408
3420,274085077.4358408
3738,55752409.54414633
2,12, 1,12, 0,13, 0.00,60.00,Thursday
135,293054383.9415804
3420,293054383.9415804
3738,47985021.44589416
2,12, 1,12, 0,14, 0.00,60.00,Thursday
135,284862041.9619273
3420,284862041.9619273
3738,43634645.88722764
2,12, 1,12, 0,15, 0.00,60.00,Thursday
135,269441115.7637978
3420,269441115.7637978
3738,24623120.14324646
2,12, 1,12, 0,16, 0.00,60.00,Thursday
135,269268736.6543601
3420,269268736.65436006
3738,32706575.54641264
2,12, 1,12, 0,17, 0.00,60.00,Thursday
135,287869974.6275134
3420,287869974.6275134
3738,39820367.043273404
2,12, 1,12, 0,18, 0.00,60.00,Thursday
135,249838473.10575205
3420,249838473.10575205
3738,53994949.17022196
2,12, 1,12, 0,19, 0.00,60.00,Thursday
135,133740301.25298795
3420,133740301.25298794
3738,80688120.29588303
2,12, 1,12, 0,20, 0.00,60.00,Thursday
135,113831038.28431147
3420,113831038.28431147
3738,78070847.0498108
2,12, 1,12, 0,21, 0.00,60.00,Thursday
135,105128345.6022504
3420,105128345.60225041
3738,81716303.9666551
2,12, 1,12, 0,22, 0.00,60.00,Thursday
135,102382745.27376664
3420,102382745.27376667
3738,84198269.24043407
2,12, 1,12, 0,23, 0.00,60.00,Thursday
135,77772390.65670998
3420,77772390.65670998
3738,6791184.0
2,12, 1,12, 0,24, 0.00,60.00,Thursday
135,72442274.24247962
3420,72442274.24247962
3738,6791184.0
2,13, 1,13, 0, 1, 0.00,60.00,Friday
135,57996196.7332391
3420,57996196.7332391
3738,6791184.0
2,13, 1,13, 0, 2, 0.00,60.00,Friday