Program Version,EnergyPlus, Version 9.6.0-f420c06a69, YMD=2022.07.06 16:21
1,5,Environment Title[],Latitude[deg],Longitude[deg],Time Zone[],Elevation[m]
2,8,Day of Simulation[],Month[],Day of Month[],DST Indicator[1=yes 0=no],Hour[],StartMinute[],EndMinute[],DayType
3,5,Cumulative Day of Simulation[],Month[],Day of Month[],DST Indicator[1=yes 0=no],DayType  ! When Daily Meters Requested
4,2,Cumulative Days of Simulation[],Month[]  ! When Monthly Meters Requested
5,1,Cumulative Days of Simulation[] ! When Run Period Meters Requested
6,1,Calendar Year of Simulation[] ! When Annual Meters Requested
135,1,Electricity:Facility [J] !Hourly
3420,1,ElectricityNet:Facility [J] !Hourly
3738,1,NaturalGas:Facility [J] !Hourly
End of Data Dictionary
1,RUNPERIOD 1,  35.04,-106.62,  -7.00,1619.00
2,1, 1, 1, 0, 1, 0.00,60.00,Holiday
135,46359074.93593144
3420,46359074.93593143
3738,6791184.0
2,1, 1, 1, 0, 2, 0.00,60.00,Holiday
135,46359235.70955593
3420,46359235.709555924
3738,6791184.0
2,1, 1, 1, 0, 3, 0.00,60.00,Holiday
135,46359235.70955593
3420,46359235.709555924
3738,6791184.0
2,1, 1, 1, 0, 4, 0.00,60.00,Holiday
135,46359235.70955593
3420,46359235.709555924
3738,6791184.0
2,1, 1, 1, 0, 5, 0.00,60.00,Holiday
135,46359235.70955593
3420,46359235.709555924
3738,6791184.0
2,1, 1, 1, 0, 6, 0.00,60.00,Holiday
135,46359235.70955593
3420,46359235.709555924
3738,6791184.0
2,1, 1, 1, 0, 7, 0.00,60.00,Holiday
135,66032185.73006148
3420,66032185.73006148
3738,6791184.0
2,1, 1, 1, 0, 8, 0.00,60.00,Holiday
135,50074623.774579875
3420,50074623.774579875
3738,6791184.0
2,1, 1, 1, 0, 9, 0.00,60.00,Holiday
135,46351708.9331394
3420,46351708.9331394
3738,6791184.0
2,1, 1, 1, 0,10, 0.00,60.00,Holiday
135,46288813.17904917
3420,46288813.179049164
3738,6791184.0
2,1, 1, 1, 0,11, 0.00,60.00,Holiday
135,50556028.58634514
3420,50556028.58634514
3738,6791184.0
2,1, 1, 1, 0,12, 0.00,60.00,Holiday
135,53620061.07971074
3420,53620061.07971075
3738,6791184.0
2,1, 1, 1, 0,13, 0.00,60.00,Holiday
135,54251377.4482968
3420,54251377.44829681
3738,6791184.0
2,1, 1, 1, 0,14, 0.00,60.00,Holiday
135,58744815.664830714
3420,58744815.66483073
3738,6791184.0
2,1, 1, 1, 0,15, 0.00,60.00,Holiday
135,64652365.25448359
3420,64652365.25448359
3738,6791184.0
2,1, 1, 1, 0,16, 0.00,60.00,Holiday
135,62671968.53224909
3420,62671968.53224909
3738,6791184.0
2,1, 1, 1, 0,17, 0.00,60.00,Holiday
135,54610940.42094375
3420,54610940.42094375
3738,6791184.0
2,1, 1, 1, 0,18, 0.00,60.00,Holiday
135,66905826.86107348
3420,66905826.86107348
3738,6791184.0
2,1, 1, 1, 0,19, 0.00,60.00,Holiday
135,57105773.81922845
3420,57105773.81922844
3738,6791184.0
2,1, 1, 1, 0,20, 0.00,60.00,Holiday
135,48904615.70955593
3420,48904615.70955593
3738,6791184.0
2,1, 1, 1, 0,21, 0.00,60.00,Holiday
135,48904615.70955593
3420,48904615.70955593
3738,6791184.0
2,1, 1, 1, 0,22, 0.00,60.00,Holiday
135,48904615.70955593
3420,48904615.70955593
3738,6791184.0
2,1, 1, 1, 0,23, 0.00,60.00,Holiday
135,48904615.70955593
3420,48904615.70955593
3738,6791184.0
2,1, 1, 1, 0,24, 0.00,60.00,Holiday
135,48904615.70955593
3420,48904615.70955593
3738,6791184.0
2,2, 1, 2, 0, 1, 0.00,60.00,Monday
135,57609860.1137362
3420,57609860.1137362
3738,6791184.0
2,2, 1, 2, 0, 2, 0.00,60.00,Monday
135,57609860.1137362
3420,57609860.1137362
3738,6791184.0
2,2, 1, 2, 0, 3, 0.00,60.00,Monday
135,57609860.1137362
3420,57609860.1137362
3738,6791184.0
2,2, 1, 2, 0, 4, 0.00,60.00,Monday
135,57609860.1137362
3420,57609860.1137362
3738,6791184.0
2,2, 1, 2, 0, 5, 0.00,60.00,Monday
135,57609860.1137362
3420,57609860.1137362
3738,6791184.0
2,2, 1, 2, 0, 6, 0.00,60.00,Monday
135,57609860.1137362
3420,57609860.1137362
3738,6791184.0
2,2, 1, 2, 0, 7, 0.00,60.00,Monday
135,134878218.9732619
3420,134878218.97326186
3738,6791184.0
2,2, 1, 2, 0, 8, 0.00,60.00,Monday
135,224447349.34681612
3420,224447349.34681612
3738,144051788.3317502
2,2, 1, 2, 0, 9, 0.00,60.00,Monday
135,310113173.5226268
3420,310113173.52262676
3738,88876839.65152809
2,2, 1, 2, 0,10, 0.00,60.00,Monday
135,271365063.6523837
3420,271365063.6523836
3738,60265923.85270449
2,2, 1, 2, 0,11, 0.00,60.00,Monday
135,268042805.41555253
3420,268042805.41555253
3738,22324186.92765486
2,2, 1, 2, 0,12, 0.00,60.00,Monday
135,288256589.4717232
3420,288256589.4717232
3738,20876794.54329522
2,2, 1, 2, 0,13, 0.00,60.00,Monday
135,289626908.83261126
3420,289626908.83261126
3738,31334423.78333511
2,2, 1, 2, 0,14, 0.00,60.00,Monday
135,304560312.7598077
3420,304560312.75980777
3738,26165958.14784857
2,2, 1, 2, 0,15, 0.00,60.00,Monday
135,297207055.59561163
3420,297207055.5956117
3738,16649506.089210246
2,2, 1, 2, 0,16, 0.00,60.00,Monday
135,301765850.1485542
3420,301765850.1485542
3738,19089949.697671723
2,2, 1, 2, 0,17, 0.00,60.00,Monday
135,300883689.7626623
3420,300883689.7626623
3738,20696611.81849547
2,2, 1, 2, 0,18, 0.00,60.00,Monday
135,237763786.45298475
3420,237763786.45298478
3738,22828722.127478585
2,2, 1, 2, 0,19, 0.00,60.00,Monday
135,131185250.1779861
3420,131185250.1779861
3738,54000351.72755138
2,2, 1, 2, 0,20, 0.00,60.00,Monday
135,115788227.31176195
3420,115788227.31176195
3738,68630236.21559957
2,2, 1, 2, 0,21, 0.00,60.00,Monday
135,107180701.07736793
3420,107180701.07736793
3738,80740475.22169581
2,2, 1, 2, 0,22, 0.00,60.00,Monday
135,104935694.04120313
3420,104935694.04120316
3738,82360406.46165311
2,2, 1, 2, 0,23, 0.00,60.00,Monday
135,77772390.65670998
3420,77772390.65670998
3738,6791184.0
2,2, 1, 2, 0,24, 0.00,60.00,Monday
135,72442274.24247962
3420,72442274.24247962
3738,6791184.0
2,3, 1, 3, 0, 1, 0.00,60.00,Tuesday
135,57996196.7332391
3420,57996196.7332391
3738,6791184.0
2,3, 1, 3, 0, 2, 0.00,60.00,Tuesday
135,57609860.1137362
3420,57609860.1137362
3738,6791184.0
2,3, 1, 3, 0, 3, 0.00,60.00,Tuesday
135,57609860.1137362
3420,57609860.1137362
3738,6791184.0
2,3, 1, 3, 0, 4, 0.00,60.00,Tuesday
135,57609860.1137362
3420,57609860.1137362
3738,6791184.0
2,3, 1, 3, 0, 5, 0.00,60.00,Tuesday
135,57609860.1137362
3420,57609860.1137362
3738,6791184.0
2,3, 1, 3, 0, 6, 0.00,60.00,Tuesday
135,57609860.1137362
3420,57609860.1137362
3738,6791184.0
2,3, 1, 3, 0, 7, 0.00,60.00,Tuesday
135,110246891.9321736
3420,110246891.9321736
3738,6791184.0
2,3, 1, 3, 0, 8, 0.00,60.00,Tuesday
135,189787777.19002396
3420,189787777.19002393
3738,127893569.43827754
2,3, 1, 3, 0, 9, 0.00,60.00,Tuesday
135,311735474.6462774
3420,311735474.64627737
3738,74048611.90492582
2,3, 1, 3, 0,10, 0.00,60.00,Tuesday
135,277285498.1859546
3420,277285498.1859546
3738,33473696.454957783
2,3, 1, 3, 0,11, 0.00,60.00,Tuesday
135,276669119.4453627
3420,276669119.44536257
3738,11005409.7709702
2,3, 1, 3, 0,12, 0.00,60.00,Tuesday
135,294510040.65947235
3420,294510040.65947235
3738,23274910.85150368
2,3, 1, 3, 0,13, 0.00,60.00,Tuesday
135,296008760.87337774
3420,296008760.87337774
3738,31313196.53816751
2,3, 1, 3, 0,14, 0.00,60.00,Tuesday
135,312459596.2197046
3420,312459596.2197046
3738,26179341.570204668
2,3, 1, 3, 0,15, 0.00,60.00,Tuesday
135,300132587.72396576
3420,300132587.72396576
3738,20134709.813017763
2,3, 1, 3, 0,16, 0.00,60.00,Tuesday
135,303905456.6083193
3420,303905456.6083192
3738,15642458.513267582
2,3, 1, 3, 0,17, 0.00,60.00,Tuesday
135,306143708.642809
3420,306143708.6428089
3738,20958292.106283188
2,3, 1, 3, 0,18, 0.00,60.00,Tuesday
135,241887659.15678734
3420,241887659.15678728
3738,17408500.555825397
2,3, 1, 3, 0,19, 0.00,60.00,Tuesday
135,131936317.85543132
3420,131936317.85543132
3738,31714708.765812345
2,3, 1, 3, 0,20, 0.00,60.00,Tuesday
135,113569604.38930234
3420,113569604.38930234
3738,51650092.05562477
2,3, 1, 3, 0,21, 0.00,60.00,Tuesday
135,102910895.06207252
3420,102910895.06207252
3738,60710470.68437332
2,3, 1, 3, 0,22, 0.00,60.00,Tuesday
135,99700727.8095243
3420,99700727.80952433
3738,89792459.07201333
2,3, 1, 3, 0,23, 0.00,60.00,Tuesday
135,77772390.65670998
3420,77772390.65670998
3738,6791184.0
2,3, 1, 3, 0,24, 0.00,60.00,Tuesday
135,72442274.24247962
3420,72442274.24247962
3738,6791184.0
2,4, 1, 4, 0, 1, 0.00,60.00,Wednesday
135,57996196.7332391
3420,57996196.7332391
3738,6791184.0
2,4, 1, 4, 0, 2, 0.00,60.00,Wednesday
135,57609860.1137362
3420,57609860.1137362
3738,6791184.0
2,4, 1, 4, 0, 3, 0.00,60.00,Wednesday
135,57609860.1137362
3420,57609860.1137362
3738,6791184.0
2,4, 1, 4, 0, 4, 0.00,60.00,Wednesday
135,57609860.1137362
3420,57609860.1137362
3738,6791184.0
2,4, 1, 4, 0, 5, 0.00,60.00,Wednesday
135,57609860.1137362
3420,57609860.1137362
3738,6791184.0
2,4, 1, 4, 0, 6, 0.00,60.00,Wednesday
135,57609860.1137362
3420,57609860.1137362
3738,6791184.0
2,4, 1, 4, 0, 7, 0.00,60.00,Wednesday
135,106404852.69745946
3420,106404852.69745946
3738,6791184.0
2,4, 1, 4, 0, 8, 0.00,60.00,Wednesday
135,188565720.77044547
3420,188565720.77044547
3738,148199627.5746022
2,4, 1, 4, 0, 9, 0.00,60.00,Wednesday
135,309354701.0787325
3420,309354701.07873243
3738,87295595.8595211
2,4, 1, 4, 0,10, 0.00,60.00,Wednesday
135,271026351.7007154
3420,271026351.7007154
3738,59254591.49081121
2,4, 1, 4, 0,11, 0.00,60.00,Wednesday
135,265318671.5172772
3420,265318671.51727718
3738,39948447.48624557
2,4, 1, 4, 0,12, 0.00,60.00,Wednesday
135,279645244.1066742
3420,279645244.1066742
3738,25541763.37515947
2,4, 1, 4, 0,13, 0.00,60.00,Wednesday
135,285036500.36897314
3420,285036500.36897314
3738,31353602.7696282
2,4, 1, 4, 0,14, 0.00,60.00,Wednesday
135,290685247.22720414
3420,290685247.2272042
3738,26188331.40128117
2,4, 1, 4, 0,15, 0.00,60.00,Wednesday
135,275869938.016961
3420,275869938.016961
3738,20161876.077216543
2,4, 1, 4, 0,16, 0.00,60.00,Wednesday
135,275561594.01921284
3420,275561594.01921284
3738,15652007.014608864
2,4, 1, 4, 0,17, 0.00,60.00,Wednesday
135,295050112.0482503
3420,295050112.0482503
3738,25318932.60453754
2,4, 1, 4, 0,18, 0.00,60.00,Wednesday
135,250937232.52106398
3420,250937232.521064
3738,18172635.687563766
2,4, 1, 4, 0,19, 0.00,60.00,Wednesday
135,131963474.08535361
3420,131963474.08535364
3738,34092719.66975884
2,4, 1, 4, 0,20, 0.00,60.00,Wednesday
135,113569604.38930234
3420,113569604.38930234
3738,48641009.18389044
2,4, 1, 4, 0,21, 0.00,60.00,Wednesday
135,102910895.06207252
3420,102910895.06207252
3738,62017398.94849987
2,4, 1, 4, 0,22, 0.00,60.00,Wednesday
135,98643202.27409184
3420,98643202.27409185
3738,73472639.48549943
2,4, 1, 4, 0,23, 0.00,60.00,Wednesday
135,77772390.65670998
3420,77772390.65670998
3738,6791184.0
2,4, 1, 4, 0,24, 0.00,60.00,Wednesday
135,72442274.24247962
3420,72442274.24247962
3738,6791184.0
2,5, 1, 5, 0, 1, 0.00,60.00,Thursday
135,57996196.7332391
3420,57996196.7332391
3738,6791184.0
2,5, 1, 5, 0, 2, 0.00,60.00,Thursday
135,57609860.1137362
3420,57609860.1137362
3738,6791184.0
2,5, 1, 5, 0, 3, 0.00,60.00,Thursday
135,57609860.1137362
3420,57609860.1137362
3738,6791184.0
2,5, 1, 5, 0, 4, 0.00,60.00,Thursday
135,57609860.1137362
3420,57609860.1137362
3738,6791184.0
2,5, 1, 5, 0, 5, 0.00,60.00,Thursday
135,57609860.1137362
3420,57609860.1137362
3738,6791184.0
2,5, 1, 5, 0, 6, 0.00,60.00,Thursday
135,57609860.1137362
3420,57609860.1137362
3738,6791184.0
2,5, 1, 5, 0, 7, 0.00,60.00,Thursday
135,99605482.22971714
3420,99605482.22971717
3738,6791184.0
2,5, 1, 5, 0, 8, 0.00,60.00,Thursday
135,176848803.66143382
3420,176848803.66143382
3738,118918519.20036617
2,5, 1, 5, 0, 9, 0.00,60.00,Thursday
135,310410716.45027816
3420,310410716.45027816
3738,63718647.53624899
2,5, 1, 5, 0,10, 0.00,60.00,Thursday
135,279145913.06611407
3420,279145913.06611407
3738,18769758.24929616
2,5, 1, 5, 0,11, 0.00,60.00,Thursday
135,278477659.7647417
3420,278477659.76474166
3738,11332778.247828975
2,5, 1, 5, 0,12, 0.00,60.00,Thursday
135,291018123.9829017
3420,291018123.9829017
3738,20890680.988424744
2,5, 1, 5, 0,13, 0.00,60.00,Thursday
135,291884732.64979345
3420,291884732.6497935
3738,31320938.161408074
2,5, 1, 5, 0,14, 0.00,60.00,Thursday
135,314588481.8216781
3420,314588481.8216781
3738,26189110.105443515
2,5, 1, 5, 0,15, 0.00,60.00,Thursday
135,307964088.8082272
3420,307964088.8082271
3738,20204411.469256587
2,5, 1, 5, 0,16, 0.00,60.00,Thursday
135,311795498.4440459
3420,311795498.44404584
3738,15641762.104225928
2,5, 1, 5, 0,17, 0.00,60.00,Thursday
135,314785696.07502025
3420,314785696.07502025
3738,25321980.125197552
2,5, 1, 5, 0,18, 0.00,60.00,Thursday
135,245034952.2600156
3420,245034952.26001555
3738,11105506.040833417
2,5, 1, 5, 0,19, 0.00,60.00,Thursday
135,132573443.45313579
3420,132573443.45313579
3738,16555481.42229817
2,5, 1, 5, 0,20, 0.00,60.00,Thursday
135,113569604.38930234
3420,113569604.38930234
3738,34414366.35249759
2,5, 1, 5, 0,21, 0.00,60.00,Thursday
135,102910895.06207252
3420,102910895.06207252
3738,46617038.61522231
2,5, 1, 5, 0,22, 0.00,60.00,Thursday
135,98267997.61519502
3420,98267997.61519504
3738,60475483.2077232
2,5, 1, 5, 0,23, 0.00,60.00,Thursday
135,77772390.65670998
3420,77772390.65670998
3738,6791184.0
2,5, 1, 5, 0,24, 0.00,60.00,Thursday
135,72442274.24247962
3420,72442274.24247962
3738,6791184.0
2,6, 1, 6, 0, 1, 0.00,60.00,Friday
135,57996196.7332391
3420,57996196.7332391
3738,6791184.0
2,6, 1, 6, 0, 2, 0.00,60.00,Friday
135,57609860.1137362
3420,57609860.1137362
3738,6791184.0
2,6, 1, 6, 0, 3, 0.00,60.00,Friday
135,57609860.1137362
3420,57609860.1137362
3738,6791184.0
2,6, 1, 6, 0, 4, 0.00,60.00,Friday
135,57609860.1137362
3420,57609860.1137362
3738,6791184.0
2,6, 1, 6, 0, 5, 0.00,60.00,Friday
135,57609860.1137362
3420,57609860.1137362
3738,6791184.0
2,6, 1, 6, 0, 6, 0.00,60.00,Friday
135,57609860.1137362
3420,57609860.1137362
3738,6791184.0
2,6, 1, 6, 0, 7, 0.00,60.00,Friday
135,103332675.77662693
3420,103332675.77662693
3738,6791184.0
2,6, 1, 6, 0, 8, 0.00,60.00,Friday
135,188996787.99626085
3420,188996787.99626082
3738,123669341.24950238
2,6, 1, 6, 0, 9, 0.00,60.00,Friday
135,312823764.835119
3420,312823764.835119
3738,87141638.73130357
2,6, 1, 6, 0,10, 0.00,60.00,Friday
135,269947992.86958563
3420,269947992.8695856
3738,79633206.58854693
2,6, 1, 6, 0,11, 0.00,60.00,Friday
135,262520791.2102518
3420,262520791.2102518
3738,69104251.40758911
2,6, 1, 6, 0,12, 0.00,60.00,Friday
135,280381312.9326463
3420,280381312.9326462
3738,46192133.16639331
2,6, 1, 6, 0,13, 0.00,60.00,Friday
135,289606371.5740332
3420,289606371.57403314
3738,27998984.710618816
2,6, 1, 6, 0,14, 0.00,60.00,Friday
135,306463437.7267387
3420,306463437.72673863
3738,27469936.20340094
2,6, 1, 6, 0,15, 0.00,60.00,Friday
135,299170989.6144536
3420,299170989.61445355
3738,18996855.386032432
2,6, 1, 6, 0,16, 0.00,60.00,Friday
135,302357418.5898717
3420,302357418.58987164
3738,15649127.287257463
2,6, 1, 6, 0,17, 0.00,60.00,Friday
135,306425990.3061273
3420,306425990.30612725
3738,25324708.454373885
2,6, 1, 6, 0,18, 0.00,60.00,Friday
135,251089302.51449898
3420,251089302.51449898
3738,51878518.987101994
2,6, 1, 6, 0,19, 0.00,60.00,Friday
135,131520703.4104164
3420,131520703.41041641
3738,78826069.8962755
2,6, 1, 6, 0,20, 0.00,60.00,Friday
135,113582851.6557531
3420,113582851.6557531
3738,82143282.3938118
2,6, 1, 6, 0,21, 0.00,60.00,Friday
135,104573514.80358131
3420,104573514.80358131
3738,99561176.27974844
2,6, 1, 6, 0,22, 0.00,60.00,Friday
135,101327025.08401453
3420,101327025.08401453
3738,98386088.28740925
2,6, 1, 6, 0,23, 0.00,60.00,Friday
135,77772390.65670998
3420,77772390.65670998
3738,6791184.0
2,6, 1, 6, 0,24, 0.00,60.00,Friday
135,72442274.24247962
3420,72442274.24247962
3738,6791184.0
2,7, 1, 7, 0, 1, 0.00,60.00,Saturday
135,46745513.81922844
3420,46745513.81922843
3738,6791184.0
2,7, 1, 7, 0, 2, 0.00,60.00,Saturday
135,46359235.70955593
3420,46359235.709555924
3738,6791184.0
2,7, 1, 7, 0, 3, 0.00,60.00,Saturday
135,46359235.70955593
3420,46359235.709555924
3738,6791184.0
2,7, 1, 7, 0, 4, 0.00,60.00,Saturday
135,46359235.70955593
3420,46359235.709555924
3738,6791184.0
2,7, 1, 7, 0, 5, 0.00,60.00,Saturday
135,46359235.70955593
3420,46359235.709555924
3738,6791184.0
2,7, 1, 7, 0, 6, 0.00,60.00,Saturday
135,46359235.70955593
3420,46359235.709555924
3738,6791184.0
2,7, 1, 7, 0, 7, 0.00,60.00,Saturday
135,111651027.72719961
3420,111651027.72719963
3738,6791184.0
2,7, 1, 7, 0, 8, 0.00,60.00,Saturday
135,139967122.43387124
3420,139967122.43387127
3738,118945780.94735336
2,7, 1, 7, 0, 9, 0.00,60.00,Saturday
135,133111654.65132125
3420,133111654.65132125
3738,98554598.23411311
2,7, 1, 7, 0,10, 0.00,60.00,Saturday
135,135037421.3318358
3420,135037421.3318358
3738,82343415.67128445
2,7, 1, 7, 0,11, 0.00,60.00,Saturday
135,127968038.93177472
3420,127968038.93177472
3738,52153043.17643086
2,7, 1, 7, 0,12, 0.00,60.00,Saturday
135,136449578.96340498
3420,136449578.96340498
3738,16310586.673366915
2,7, 1, 7, 0,13, 0.00,60.00,Saturday
135,96399285.51377298
3420,96399285.51377296
3738,7554486.310602449
2,7, 1, 7, 0,14, 0.00,60.00,Saturday
135,86593084.62836362
3420,86593084.62836364
3738,6791184.0
2,7, 1, 7, 0,15, 0.00,60.00,Saturday
135,80777988.06353001
3420,80777988.06353001
3738,6791184.0
2,7, 1, 7, 0,16, 0.00,60.00,Saturday
135,76233398.28453368
3420,76233398.28453368
3738,10081164.463239156
2,7, 1, 7, 0,17, 0.00,60.00,Saturday
135,78547387.9882681
3420,78547387.9882681
3738,18585121.818446264
2,7, 1, 7, 0,18, 0.00,60.00,Saturday
135,83077160.33306564
3420,83077160.33306564
3738,35612159.569806375
2,7, 1, 7, 0,19, 0.00,60.00,Saturday
135,66276703.53612528
3420,66276703.53612528
3738,6791184.0
2,7, 1, 7, 0,20, 0.00,60.00,Saturday
135,49290893.81922844
3420,49290893.81922844
3738,6791184.0
2,7, 1, 7, 0,21, 0.00,60.00,Saturday
135,48904615.70955593
3420,48904615.70955593
3738,6791184.0
2,7, 1, 7, 0,22, 0.00,60.00,Saturday
135,48904615.70955593
3420,48904615.70955593
3738,6791184.0
2,7, 1, 7, 0,23, 0.00,60.00,Saturday
135,48904615.70955593
3420,48904615.70955593
3738,6791184.0
2,7, 1, 7, 0,24, 0.00,60.00,Saturday
135,48904615.70955593
3420,48904615.70955593
3738,6791184.0
2,8, 1, 8, 0, 1, 0.00,60.00,Sunday
135,46359235.70955593
3420,46359235.709555924
3738,6791184.0
2,8, 1, 8, 0, 2, 0.00,60.00,Sunday
135,46359235.70955593
3420,46359235.709555924
3738,6791184.0
2,8, 1, 8, 0, 3, 0.00,60.00,Sunday
135,46359235.70955593
3420,46359235.709555924
3738,6791184.0
2,8, 1, 8, 0, 4, 0.00,60.00,Sunday
135,46359235.70955593
3420,46359235.709555924
3738,6791184.0
2,8, 1, 8, 0, 5, 0.00,60.00,Sunday
135,46359235.70955593
3420,46359235.709555924
3738,6791184.0
2,8, 1, 8, 0, 6, 0.00,60.00,Sunday
135,46359235.70955593
3420,46359235.709555924
3738,6791184.0
2,8, 1, 8, 0, 7, 0.00,60.00,Sunday
135,66032185.73006148
3420,66032185.73006148
3738,6791184.0
2,8, 1, 8, 0, 8, 0.00,60.00,Sunday
135,53323580.330645084
3420,53323580.330645084
3738,6791184.0
2,8, 1, 8, 0, 9, 0.00,60.00,Sunday
135,46344166.24829911
3420,46344166.24829911
3738,6791184.0
2,8, 1, 8, 0,10, 0.00,60.00,Sunday
135,46288812.51597283
3420,46288812.51597283
3738,6791184.0
2,8, 1, 8, 0,11, 0.00,60.00,Sunday
135,47721837.21296789
3420,47721837.21296789
3738,6791184.0
2,8, 1, 8, 0,12, 0.00,60.00,Sunday
135,52055369.13988179
3420,52055369.139881805
3738,6791184.0
2,8, 1, 8, 0,13, 0.00,60.00,Sunday
135,54251902.8734095
3420,54251902.8734095
3738,6791184.0
2,8, 1, 8, 0,14, 0.00,60.00,Sunday
135,55728352.012589954
3420,55728352.01258996
3738,6791184.0
2,8, 1, 8, 0,15, 0.00,60.00,Sunday
135,57922851.26096905
3420,57922851.26096904
3738,6791184.0
2,8, 1, 8, 0,16, 0.00,60.00,Sunday
135,57738119.917472705
3420,57738119.917472705
3738,6791184.0
2,8, 1, 8, 0,17, 0.00,60.00,Sunday
135,53085390.834159106
3420,53085390.834159106
3738,6791184.0
2,8, 1, 8, 0,18, 0.00,60.00,Sunday
135,66276671.30593526
3420,66276671.30593526
3738,6791184.0
2,8, 1, 8, 0,19, 0.00,60.00,Sunday
135,57105773.81922845
3420,57105773.81922844
3738,6791184.0
2,8, 1, 8, 0,20, 0.00,60.00,Sunday
135,48904615.70955593
3420,48904615.70955593
3738,6791184.0
2,8, 1, 8, 0,21, 0.00,60.00,Sunday
135,48904615.70955593
3420,48904615.70955593
3738,6791184.0
2,8, 1, 8, 0,22, 0.00,60.00,Sunday
135,48904615.70955593
3420,48904615.70955593
3738,6791184.0
2,8, 1, 8, 0,23, 0.00,60.00,Sunday
135,48904615.70955593
3420,48904615.70955593
3738,6791184.0
2,8, 1, 8, 0,24, 0.00,60.00,Sunday
135,48904615.70955593
3420,48904615.70955593
3738,6791184.0
2,9, 1, 9, 0, 1, 0.00,60.00,Monday
135,57609860.1137362
3420,57609860.1137362
3738,6791184.0
2,9, 1, 9, 0, 2, 0.00,60.00,Monday
135,57609860.1137362
3420,57609860.1137362
3738,6791184.0
2,9, 1, 9, 0, 3, 0.00,60.00,Monday
135,57609860.1137362
3420,57609860.1137362
3738,6791184.0
2,9, 1, 9, 0, 4, 0.00,60.00,Monday
135,57609860.1137362
3420,57609860.1137362
3738,6791184.0
2,9, 1, 9, 0, 5, 0.00,60.00,Monday
135,57609860.1137362
3420,57609860.1137362
3738,6791184.0
2,9, 1, 9, 0, 6, 0.00,60.00,Monday
135,57609860.1137362
3420,57609860.1137362
3738,6791184.0
2,9, 1, 9, 0, 7, 0.00,60.00,Monday
135,127775341.61608614
3420,127775341.61608614
3738,6791184.0
2,9, 1, 9, 0, 8, 0.00,60.00,Monday
135,216179234.45627195
3420,216179234.45627195
3738,134273806.2149615
2,9, 1, 9, 0, 9, 0.00,60.00,Monday
135,314156298.7883135
3420,314156298.78831345
3738,81842253.80540171
2,9, 1, 9, 0,10, 0.00,60.00,Monday
135,274628225.1960757
3420,274628225.1960756
3738,56164805.2017191
2,9, 1, 9, 0,11, 0.00,60.00,Monday
135,270716988.7690973
3420,270716988.76909727
3738,19789986.889755342
2,9, 1, 9, 0,12, 0.00,60.00,Monday
135,288876114.30239093
3420,288876114.30239093
3738,20903858.658823863
2,9, 1, 9, 0,13, 0.00,60.00,Monday
135,291419525.7000261
3420,291419525.7000261
3738,31355574.389093805
2,9, 1, 9, 0,14, 0.00,60.00,Monday
135,307771749.2633727
3420,307771749.2633728
3738,26214926.118256956
2,9, 1, 9, 0,15, 0.00,60.00,Monday
135,302280297.4973483
3420,302280297.4973483
3738,20131558.8642471
2,9, 1, 9, 0,16, 0.00,60.00,Monday
135,311368955.67712075
3420,311368955.67712075
3738,15659344.662075207
2,9, 1, 9, 0,17, 0.00,60.00,Monday
135,322059228.4888897
3420,322059228.4888897
3738,25336254.56186763
2,9, 1, 9, 0,18, 0.00,60.00,Monday
135,242365177.31961447
3420,242365177.3196145
3738,12386778.310160404
2,9, 1, 9, 0,19, 0.00,60.00,Monday
135,131862835.68646234
3420,131862835.68646234
3738,31207047.15947707
2,9, 1, 9, 0,20, 0.00,60.00,Monday
135,113569604.38930234
3420,113569604.38930234
3738,40311756.669866756
2,9, 1, 9, 0,21, 0.00,60.00,Monday
135,103779184.74559098
3420,103779184.745591
3738,30174273.37894174
2,9, 1, 9, 0,22, 0.00,60.00,Monday
135,100597415.60347712
3420,100597415.60347715
3738,37179217.278035626
2,9, 1, 9, 0,23, 0.00,60.00,Monday
135,77772390.65670998
3420,77772390.65670998
3738,6791184.0
2,9, 1, 9, 0,24, 0.00,60.00,Monday
135,72442274.24247962
3420,72442274.24247962
3738,6791184.0
2,10, 1,10, 0, 1, 0.00,60.00,Tuesday
135,57996196.7332391
3420,57996196.7332391
3738,6791184.0
2,10, 1,10, 0, 2, 0.00,60.00,Tuesday
135,57609860.1137362
3420,57609860.1137362
3738,6791184.0
2,10, 1,10, 0, 3, 0.00,60.00,Tuesday
135,57609860.1137362
3420,57609860.1137362
3738,6791184.0
2,10, 1,10, 0, 4, 0.00,60.00,Tuesday
135,57609860.1137362
3420,57609860.1137362
3738,6791184.0
2,10, 1,10, 0, 5, 0.00,60.00,Tuesday
135,57609860.1137362
3420,57609860.1137362
3738,6791184.0
2,10, 1,10, 0, 6, 0.00,60.00,Tuesday
135,57609860.1137362
3420,57609860.1137362
3738,6791184.0
2,10, 1,10, 0, 7, 0.00,60.00,Tuesday
135,112053850.59872653
3420,112053850.59872654
3738,6791184.0
2,10, 1,10, 0, 8, 0.00,60.00,Tuesday
135,193133968.40314803
3420,193133968.403148
3738,148639187.43306196
2,10, 1,10, 0, 9, 0.00,60.00,Tuesday
135,308435264.6700568
3420,308435264.67005694
3738,95263933.27491432
2,10, 1,10, 0,10, 0.00,60.00,Tuesday
135,269453358.2560257
3420,269453358.2560257
3738,74055824.44277939
2,10, 1,10, 0,11, 0.00,60.00,Tuesday
135,261988084.28153712
3420,261988084.28153712
3738,63824945.83561754
2,10, 1,10, 0,12, 0.00,60.00,Tuesday
135,271776391.09398216
3420,271776391.09398216
3738,74544618.9032729
2,10, 1,10, 0,13, 0.00,60.00,Tuesday
135,290239252.259704
3420,290239252.25970393
3738,55993556.28745004
2,10, 1,10, 0,14, 0.00,60.00,Tuesday
135,287916335.7064761
3420,287916335.7064761
3738,35121458.95634877
2,10, 1,10, 0,15, 0.00,60.00,Tuesday
135,280129852.2560382
3420,280129852.2560381
3738,16044335.735474655
2,10, 1,10, 0,16, 0.00,60.00,Tuesday
135,282225077.8454008
3420,282225077.84540075
3738,17480803.67581915
2,10, 1,10, 0,17, 0.00,60.00,Tuesday
135,294201675.59661424
3420,294201675.59661424
3738,23433128.687245056
2,10, 1,10, 0,18, 0.00,60.00,Tuesday
135,250465714.20103973
3420,250465714.20103973
3738,38172979.61306477
2,10, 1,10, 0,19, 0.00,60.00,Tuesday
135,130961055.8539739
3420,130961055.8539739
3738,77798542.44202057
2,10, 1,10, 0,20, 0.00,60.00,Tuesday
135,113741466.5645763
3420,113741466.5645763
3738,81761902.74747477
2,10, 1,10, 0,21, 0.00,60.00,Tuesday
135,104392484.85640083
3420,104392484.85640083
3738,91252513.11525652
2,10, 1,10, 0,22, 0.00,60.00,Tuesday
135,103178887.46064365
3420,103178887.46064365
3738,104013832.74023393
2,10, 1,10, 0,23, 0.00,60.00,Tuesday
135,77772390.65670998
3420,77772390.65670998
3738,6791184.0
2,10, 1,10, 0,24, 0.00,60.00,Tuesday
135,72442274.24247962
3420,72442274.24247962
3738,6791184.0
2,11, 1,11, 0, 1, 0.00,60.00,Wednesday
135,57996196.7332391
3420,57996196.7332391
3738,6791184.0
2,11, 1,11, 0, 2, 0.00,60.00,Wednesday
135,57609860.1137362
3420,57609860.1137362
3738,6791184.0
2,11, 1,11, 0, 3, 0.00,60.00,Wednesday
135,57609860.1137362
3420,57609860.1137362
3738,6791184.0
2,11, 1,11, 0, 4, 0.00,60.00,Wednesday
135,57609860.1137362
3420,57609860.1137362
3738,6791184.0
2,11, 1,11, 0, 5, 0.00,60.00,Wednesday
135,57609860.1137362
3420,57609860.1137362
3738,6791184.0
2,11, 1,11, 0, 6, 0.00,60.00,Wednesday
135,57609860.1137362
3420,57609860.1137362
3738,6791184.0
2,11, 1,11, 0, 7, 0.00,60.00,Wednesday
135,107860369.50132838
3420,107860369.50132838
3738,6791184.0
2,11, 1,11, 0, 8, 0.00,60.00,Wednesday
135,187752977.03550297
3420,187752977.03550297
3738,90530439.55183375
2,11, 1,11, 0, 9, 0.00,60.00,Wednesday
135,304135536.81824535
3420,304135536.81824535
3738,62046120.39282335
2,11, 1,11, 0,10, 0.00,60.00,Wednesday
135,267347949.84728125
3420,267347949.8472812
3738,47852839.924742445
2,11, 1,11, 0,11, 0.00,60.00,Wednesday
135,261554473.6725636
3420,261554473.67256358
3738,20104010.969249666
2,11, 1,11, 0,12, 0.00,60.00,Wednesday
135,270293068.0274366
3420,270293068.0274365
3738,29532637.230644275
2,11, 1,11, 0,13, 0.00,60.00,Wednesday
135,275006844.7541081
3420,275006844.7541081
3738,42175983.396646984
2,11, 1,11, 0,14, 0.00,60.00,Wednesday
135,273927205.8768949
3420,273927205.8768949
3738,30651755.068152398
2,11, 1,11, 0,15, 0.00,60.00,Wednesday
135,259836965.37244117
3420,259836965.37244117
3738,22542603.716043763
2,11, 1,11, 0,16, 0.00,60.00,Wednesday
135,260187324.98592687
3420,260187324.98592687
3738,28110644.405724265
2,11, 1,11, 0,17, 0.00,60.00,Wednesday
135,277290148.57407296
3420,277290148.5740729
3738,56664710.49581564
2,11, 1,11, 0,18, 0.00,60.00,Wednesday
135,241983732.10260856
3420,241983732.10260856
3738,60663183.56263861
2,11, 1,11, 0,19, 0.00,60.00,Wednesday
135,131764967.00881463
3420,131764967.00881463
3738,88970534.16825677
2,11, 1,11, 0,20, 0.00,60.00,Wednesday
135,113943843.0062705
3420,113943843.0062705
3738,98064841.88689896
2,11, 1,11, 0,21, 0.00,60.00,Wednesday
135,105220707.70469959
3420,105220707.7046996
3738,97620208.10513948
2,11, 1,11, 0,22, 0.00,60.00,Wednesday
135,103132635.42316936
3420,103132635.42316939
3738,108228853.1067574
2,11, 1,11, 0,23, 0.00,60.00,Wednesday
135,77772390.65670998
3420,77772390.65670998
3738,6791184.0
2,11, 1,11, 0,24, 0.00,60.00,Wednesday
135,72442274.24247962
3420,72442274.24247962
3738,6791184.0
2,12, 1,12, 0, 1, 0.00,60.00,Thursday
135,57996196.7332391
3420,57996196.7332391
3738,6791184.0
2,12, 1,12, 0, 2, 0.00,60.00,Thursday
135,57609860.1137362
3420,57609860.1137362
3738,6791184.0
2,12, 1,12, 0, 3, 0.00,60.00,Thursday
135,57609860.1137362
3420,57609860.1137362
3738,6791184.0
2,12, 1,12, 0, 4, 0.00,60.00,Thursday
135,57609860.1137362
3420,57609860.1137362
3738,6791184.0
2,12, 1,12, 0, 5, 0.00,60.00,Thursday
135,57609860.1137362
3420,57609860.1137362
3738,6791184.0
2,12, 1,12, 0, 6, 0.00,60.00,Thursday
135,57609860.1137362
3420,57609860.1137362
3738,6791184.0
2,12, 1,12, 0, 7, 0.00,60.00,Thursday
135,111526487.7366384
3420,111526487.7366384
3738,6791184.0
2,12, 1,12, 0, 8, 0.00,60.00,Thursday
135,193339988.2991761
3420,193339988.2991761
3738,138639677.8594297
2,12, 1,12, 0, 9, 0.00,60.00,Thursday
135,310951706.3860683
3420,310951706.38606834
3738,89914537.40799119
2,12, 1,12, 0,10, 0.00,60.00,Thursday
135,268785626.1024307
3420,268785626.1024307
3738,77487493.63745075
2,12, 1,12, 0,11, 0.00,60.00,Thursday
135,262345895.32903448
3420,262345895.32903448
3738,61211747.56973115
2,12, 1,12, 0,12, 0.00,60.00,Thursday
135,274465680.0386129
3420,274465680.03861284
3738,55338478.79431665
2,12, 1,12, 0,13, 0.00,60.00,Thursday
135,293269617.30270445
3420,293269617.3027044
3738,47549827.20558564
2,12, 1,12, 0,14, 0.00,60.00,Thursday
135,285252548.1500507
3420,285252548.15005064
3738,42667399.26434158
2,12, 1,12, 0,15, 0.00,60.00,Thursday
135,269772294.8895623
3420,269772294.8895623
3738,24070561.093864784
2,12, 1,12, 0,16, 0.00,60.00,Thursday
135,269589054.4752657
3420,269589054.4752656
3738,32227851.392436977
2,12, 1,12, 0,17, 0.00,60.00,Thursday
135,288188168.03236073
3420,288188168.0323607
3738,39442553.67870352
2,12, 1,12, 0,18, 0.00,60.00,Thursday
135,250097794.68831164
3420,250097794.68831164
3738,53894774.702740714
2,12, 1,12, 0,19, 0.00,60.00,Thursday
135,133579641.12024897
3420,133579641.12024897
3738,80394314.78609252
2,12, 1,12, 0,20, 0.00,60.00,Thursday
135,113726639.40276939
3420,113726639.40276939
3738,77864989.67330755
2,12, 1,12, 0,21, 0.00,60.00,Thursday
135,104876571.28090903
3420,104876571.28090905
3738,81534798.42144245
2,12, 1,12, 0,22, 0.00,60.00,Thursday
135,102082651.09472701
3420,102082651.09472702
3738,83916421.66386461
2,12, 1,12, 0,23, 0.00,60.00,Thursday
135,77772390.65670998
3420,77772390.65670998
3738,6791184.0
2,12, 1,12, 0,24, 0.00,60.00,Thursday
135,72442274.24247962
3420,72442274.24247962
3738,6791184.0
2,13, 1,13, 0, 1, 0.00,60.00,Friday
135,57996196.7332391
3420,57996196.7332391
3738,6791184.0
2,13, 1,13, 0, 2, 0.00,60.00,Friday