Program Version,EnergyPlus, Version 9.6.0-f420c06a69, YMD=2022.07.06 16:45
1,5,Environment Title[],Latitude[deg],Longitude[deg],Time Zone[],Elevation[m]
2,8,Day of Simulation[],Month[],Day of Month[],DST Indicator[1=yes 0=no],Hour[],StartMinute[],EndMinute[],DayType
3,5,Cumulative Day of Simulation[],Month[],Day of Month[],DST Indicator[1=yes 0=no],DayType  ! When Daily Meters Requested
4,2,Cumulative Days of Simulation[],Month[]  ! When Monthly Meters Requested
5,1,Cumulative Days of Simulation[] ! When Run Period Meters Requested
6,1,Calendar Year of Simulation[] ! When Annual Meters Requested
135,1,Electricity:Facility [J] !Hourly
3420,1,ElectricityNet:Facility [J] !Hourly
3738,1,NaturalGas:Facility [J] !Hourly
End of Data Dictionary
1,RUNPERIOD 1,  35.04,-106.62,  -7.00,1619.00
2,1, 1, 1, 0, 1, 0.00,60.00,Holiday
135,46359074.93593144
3420,46359074.93593143
3738,6791184.0
2,1, 1, 1, 0, 2, 0.00,60.00,Holiday
135,46359235.70955593
3420,46359235.709555924
3738,6791184.0
2,1, 1, 1, 0, 3, 0.00,60.00,Holiday
135,46359235.70955593
3420,46359235.709555924
3738,6791184.0
2,1, 1, 1, 0, 4, 0.00,60.00,Holiday
135,46359235.70955593
3420,46359235.709555924
3738,6791184.0
2,1, 1, 1, 0, 5, 0.00,60.00,Holiday
135,46359235.70955593
3420,46359235.709555924
3738,6791184.0
2,1, 1, 1, 0, 6, 0.00,60.00,Holiday
135,46359235.70955593
3420,46359235.709555924
3738,6791184.0
2,1, 1, 1, 0, 7, 0.00,60.00,Holiday
135,66032185.73006148
3420,66032185.73006148
3738,6791184.0
2,1, 1, 1, 0, 8, 0.00,60.00,Holiday
135,50074623.774579875
3420,50074623.774579875
3738,6791184.0
2,1, 1, 1, 0, 9, 0.00,60.00,Holiday
135,46351708.9331394
3420,46351708.9331394
3738,6791184.0
2,1, 1, 1, 0,10, 0.00,60.00,Holiday
135,46288813.17904917
3420,46288813.179049164
3738,6791184.0
2,1, 1, 1, 0,11, 0.00,60.00,Holiday
135,50556028.58634514
3420,50556028.58634514
3738,6791184.0
2,1, 1, 1, 0,12, 0.00,60.00,Holiday
135,53620061.07971074
3420,53620061.07971075
3738,6791184.0
2,1, 1, 1, 0,13, 0.00,60.00,Holiday
135,54251377.4482968
3420,54251377.44829681
3738,6791184.0
2,1, 1, 1, 0,14, 0.00,60.00,Holiday
135,58744815.664830714
3420,58744815.66483073
3738,6791184.0
2,1, 1, 1, 0,15, 0.00,60.00,Holiday
135,64652365.25448359
3420,64652365.25448359
3738,6791184.0
2,1, 1, 1, 0,16, 0.00,60.00,Holiday
135,62671968.53224909
3420,62671968.53224909
3738,6791184.0
2,1, 1, 1, 0,17, 0.00,60.00,Holiday
135,54610940.42094375
3420,54610940.42094375
3738,6791184.0
2,1, 1, 1, 0,18, 0.00,60.00,Holiday
135,66905826.86107348
3420,66905826.86107348
3738,6791184.0
2,1, 1, 1, 0,19, 0.00,60.00,Holiday
135,57105773.81922845
3420,57105773.81922844
3738,6791184.0
2,1, 1, 1, 0,20, 0.00,60.00,Holiday
135,48904615.70955593
3420,48904615.70955593
3738,6791184.0
2,1, 1, 1, 0,21, 0.00,60.00,Holiday
135,48904615.70955593
3420,48904615.70955593
3738,6791184.0
2,1, 1, 1, 0,22, 0.00,60.00,Holiday
135,48904615.70955593
3420,48904615.70955593
3738,6791184.0
2,1, 1, 1, 0,23, 0.00,60.00,Holiday
135,48904615.70955593
3420,48904615.70955593
3738,6791184.0
2,1, 1, 1, 0,24, 0.00,60.00,Holiday
135,48904615.70955593
3420,48904615.70955593
3738,6791184.0
2,2, 1, 2, 0, 1, 0.00,60.00,Monday
135,57609860.1137362
3420,57609860.1137362
3738,6791184.0
2,2, 1, 2, 0, 2, 0.00,60.00,Monday
135,57609860.1137362
3420,57609860.1137362
3738,6791184.0
2,2, 1, 2, 0, 3, 0.00,60.00,Monday
135,57609860.1137362
3420,57609860.1137362
3738,6791184.0
2,2, 1, 2, 0, 4, 0.00,60.00,Monday
135,57609860.1137362
3420,57609860.1137362
3738,6791184.0
2,2, 1, 2, 0, 5, 0.00,60.00,Monday
135,57609860.1137362
3420,57609860.1137362
3738,6791184.0
2,2, 1, 2, 0, 6, 0.00,60.00,Monday
135,57609860.1137362
3420,57609860.1137362
3738,6791184.0
2,2, 1, 2, 0, 7, 0.00,60.00,Monday
135,134878218.9732619
3420,134878218.97326186
3738,6791184.0
2,2, 1, 2, 0, 8, 0.00,60.00,Monday
135,224447349.34681612
3420,224447349.34681612
3738,144051788.3317502
2,2, 1, 2, 0, 9, 0.00,60.00,Monday
135,310113173.5226268
3420,310113173.52262676
3738,88876839.65152809
2,2, 1, 2, 0,10, 0.00,60.00,Monday
135,271365063.6523837
3420,271365063.6523836
3738,60265923.85270449
2,2, 1, 2, 0,11, 0.00,60.00,Monday
135,268042805.41555253
3420,268042805.41555253
3738,22324186.92765486
2,2, 1, 2, 0,12, 0.00,60.00,Monday
135,288256589.4717232
3420,288256589.4717232
3738,20876794.54329522
2,2, 1, 2, 0,13, 0.00,60.00,Monday
135,289626908.83261126
3420,289626908.83261126
3738,31334423.78333511
2,2, 1, 2, 0,14, 0.00,60.00,Monday
135,304560312.7598077
3420,304560312.75980777
3738,26165958.14784857
2,2, 1, 2, 0,15, 0.00,60.00,Monday
135,297207055.59561163
3420,297207055.5956117
3738,16649506.089210246
2,2, 1, 2, 0,16, 0.00,60.00,Monday
135,301765850.1485542
3420,301765850.1485542
3738,19089949.697671723
2,2, 1, 2, 0,17, 0.00,60.00,Monday
135,300883689.7626623
3420,300883689.7626623
3738,20696611.81849547
2,2, 1, 2, 0,18, 0.00,60.00,Monday
135,237763786.45298475
3420,237763786.45298478
3738,22828722.127478585
2,2, 1, 2, 0,19, 0.00,60.00,Monday
135,131185250.1779861
3420,131185250.1779861
3738,54000351.72755138
2,2, 1, 2, 0,20, 0.00,60.00,Monday
135,115788227.31176195
3420,115788227.31176195
3738,68630236.21559957
2,2, 1, 2, 0,21, 0.00,60.00,Monday
135,107180701.07736793
3420,107180701.07736793
3738,80740475.22169581
2,2, 1, 2, 0,22, 0.00,60.00,Monday
135,104935694.04120313
3420,104935694.04120316
3738,82360406.46165311
2,2, 1, 2, 0,23, 0.00,60.00,Monday
135,77772390.65670998
3420,77772390.65670998
3738,6791184.0
2,2, 1, 2, 0,24, 0.00,60.00,Monday
135,72442274.24247962
3420,72442274.24247962
3738,6791184.0
2,3, 1, 3, 0, 1, 0.00,60.00,Tuesday
135,57996196.7332391
3420,57996196.7332391
3738,6791184.0
2,3, 1, 3, 0, 2, 0.00,60.00,Tuesday
135,57609860.1137362
3420,57609860.1137362
3738,6791184.0
2,3, 1, 3, 0, 3, 0.00,60.00,Tuesday
135,57609860.1137362
3420,57609860.1137362
3738,6791184.0
2,3, 1, 3, 0, 4, 0.00,60.00,Tuesday
135,57609860.1137362
3420,57609860.1137362
3738,6791184.0
2,3, 1, 3, 0, 5, 0.00,60.00,Tuesday
135,57609860.1137362
3420,57609860.1137362
3738,6791184.0
2,3, 1, 3, 0, 6, 0.00,60.00,Tuesday
135,57609860.1137362
3420,57609860.1137362
3738,6791184.0
2,3, 1, 3, 0, 7, 0.00,60.00,Tuesday
135,110246891.9321736
3420,110246891.9321736
3738,6791184.0
2,3, 1, 3, 0, 8, 0.00,60.00,Tuesday
135,189787777.19002396
3420,189787777.19002393
3738,127893569.43827754
2,3, 1, 3, 0, 9, 0.00,60.00,Tuesday
135,311735474.6462774
3420,311735474.64627737
3738,74048611.90492582
2,3, 1, 3, 0,10, 0.00,60.00,Tuesday
135,277285498.1859546
3420,277285498.1859546
3738,33473696.454957783
2,3, 1, 3, 0,11, 0.00,60.00,Tuesday
135,276669119.4453627
3420,276669119.44536257
3738,11005409.7709702
2,3, 1, 3, 0,12, 0.00,60.00,Tuesday
135,294510040.65947235
3420,294510040.65947235
3738,23274910.85150368
2,3, 1, 3, 0,13, 0.00,60.00,Tuesday
135,296008760.87337774
3420,296008760.87337774
3738,31313196.53816751
2,3, 1, 3, 0,14, 0.00,60.00,Tuesday
135,312459596.2197046
3420,312459596.2197046
3738,26179341.570204668
2,3, 1, 3, 0,15, 0.00,60.00,Tuesday
135,300132587.72396576
3420,300132587.72396576
3738,20134709.813017763
2,3, 1, 3, 0,16, 0.00,60.00,Tuesday
135,303905456.6083193
3420,303905456.6083192
3738,15642458.513267582
2,3, 1, 3, 0,17, 0.00,60.00,Tuesday
135,306143708.642809
3420,306143708.6428089
3738,20958292.106283188
2,3, 1, 3, 0,18, 0.00,60.00,Tuesday
135,241887659.15678734
3420,241887659.15678728
3738,17408500.555825397
2,3, 1, 3, 0,19, 0.00,60.00,Tuesday
135,131936317.85543132
3420,131936317.85543132
3738,31714708.765812345
2,3, 1, 3, 0,20, 0.00,60.00,Tuesday
135,113569604.38930234
3420,113569604.38930234
3738,51650092.05562477
2,3, 1, 3, 0,21, 0.00,60.00,Tuesday
135,102910895.06207252
3420,102910895.06207252
3738,60710470.68437332
2,3, 1, 3, 0,22, 0.00,60.00,Tuesday
135,99700727.8095243
3420,99700727.80952433
3738,89792459.07201333
2,3, 1, 3, 0,23, 0.00,60.00,Tuesday
135,77772390.65670998
3420,77772390.65670998
3738,6791184.0
2,3, 1, 3, 0,24, 0.00,60.00,Tuesday
135,72442274.24247962
3420,72442274.24247962
3738,6791184.0
2,4, 1, 4, 0, 1, 0.00,60.00,Wednesday
135,57996196.7332391
3420,57996196.7332391
3738,6791184.0
2,4, 1, 4, 0, 2, 0.00,60.00,Wednesday
135,57609860.1137362
3420,57609860.1137362
3738,6791184.0
2,4, 1, 4, 0, 3, 0.00,60.00,Wednesday
135,57609860.1137362
3420,57609860.1137362
3738,6791184.0
2,4, 1, 4, 0, 4, 0.00,60.00,Wednesday
135,57609860.1137362
3420,57609860.1137362
3738,6791184.0
2,4, 1, 4, 0, 5, 0.00,60.00,Wednesday
135,57609860.1137362
3420,57609860.1137362
3738,6791184.0
2,4, 1, 4, 0, 6, 0.00,60.00,Wednesday
135,57609860.1137362
3420,57609860.1137362
3738,6791184.0
2,4, 1, 4, 0, 7, 0.00,60.00,Wednesday
135,106404852.69745946
3420,106404852.69745946
3738,6791184.0
2,4, 1, 4, 0, 8, 0.00,60.00,Wednesday
135,188565720.77044547
3420,188565720.77044547
3738,148199627.5746022
2,4, 1, 4, 0, 9, 0.00,60.00,Wednesday
135,309354701.0787325
3420,309354701.07873243
3738,87295595.8595211
2,4, 1, 4, 0,10, 0.00,60.00,Wednesday
135,271026351.7007154
3420,271026351.7007154
3738,59254591.49081121
2,4, 1, 4, 0,11, 0.00,60.00,Wednesday
135,265318671.5172772
3420,265318671.51727718
3738,39948447.48624557
2,4, 1, 4, 0,12, 0.00,60.00,Wednesday
135,279645244.1066742
3420,279645244.1066742
3738,25541763.37515947
2,4, 1, 4, 0,13, 0.00,60.00,Wednesday
135,285036500.36897314
3420,285036500.36897314
3738,31353602.7696282
2,4, 1, 4, 0,14, 0.00,60.00,Wednesday
135,290685247.22720414
3420,290685247.2272042
3738,26188331.40128117
2,4, 1, 4, 0,15, 0.00,60.00,Wednesday
135,275869938.016961
3420,275869938.016961
3738,20161876.077216543
2,4, 1, 4, 0,16, 0.00,60.00,Wednesday
135,275561594.01921284
3420,275561594.01921284
3738,15652007.014608864
2,4, 1, 4, 0,17, 0.00,60.00,Wednesday
135,295050112.0482503
3420,295050112.0482503
3738,25318932.60453754
2,4, 1, 4, 0,18, 0.00,60.00,Wednesday
135,250937232.52106398
3420,250937232.521064
3738,18172635.687563766
2,4, 1, 4, 0,19, 0.00,60.00,Wednesday
135,131963474.08535361
3420,131963474.08535364
3738,34092719.66975884
2,4, 1, 4, 0,20, 0.00,60.00,Wednesday
135,113569604.38930234
3420,113569604.38930234
3738,48641009.18389044
2,4, 1, 4, 0,21, 0.00,60.00,Wednesday
135,102910895.06207252
3420,102910895.06207252
3738,62017398.94849987
2,4, 1, 4, 0,22, 0.00,60.00,Wednesday
135,98643202.27409184
3420,98643202.27409185
3738,73472639.48549943
2,4, 1, 4, 0,23, 0.00,60.00,Wednesday
135,77772390.65670998
3420,77772390.65670998
3738,6791184.0
2,4, 1, 4, 0,24, 0.00,60.00,Wednesday
135,72442274.24247962
3420,72442274.24247962
3738,6791184.0
2,5, 1, 5, 0, 1, 0.00,60.00,Thursday
135,57996196.7332391
3420,57996196.7332391
3738,6791184.0
2,5, 1, 5, 0, 2, 0.00,60.00,Thursday
135,57609860.1137362
3420,57609860.1137362
3738,6791184.0
2,5, 1, 5, 0, 3, 0.00,60.00,Thursday
135,57609860.1137362
3420,57609860.1137362
3738,6791184.0
2,5, 1, 5, 0, 4, 0.00,60.00,Thursday
135,57609860.1137362
3420,57609860.1137362
3738,6791184.0
2,5, 1, 5, 0, 5, 0.00,60.00,Thursday
135,57609860.1137362
3420,57609860.1137362
3738,6791184.0
2,5, 1, 5, 0, 6, 0.00,60.00,Thursday
135,57609860.1137362
3420,57609860.1137362
3738,6791184.0
2,5, 1, 5, 0, 7, 0.00,60.00,Thursday
135,99605482.22971714
3420,99605482.22971717
3738,6791184.0
2,5, 1, 5, 0, 8, 0.00,60.00,Thursday
135,176848803.66143382
3420,176848803.66143382
3738,118918519.20036617
2,5, 1, 5, 0, 9, 0.00,60.00,Thursday
135,310410716.45027816
3420,310410716.45027816
3738,63718647.53624899
2,5, 1, 5, 0,10, 0.00,60.00,Thursday
135,279145913.06611407
3420,279145913.06611407
3738,18769758.24929616
2,5, 1, 5, 0,11, 0.00,60.00,Thursday
135,278477659.7647417
3420,278477659.76474166
3738,11332778.247828975
2,5, 1, 5, 0,12, 0.00,60.00,Thursday
135,291018123.9829017
3420,291018123.9829017
3738,20890680.988424744
2,5, 1, 5, 0,13, 0.00,60.00,Thursday
135,291884732.64979345
3420,291884732.6497935
3738,31320938.161408074
2,5, 1, 5, 0,14, 0.00,60.00,Thursday
135,313635087.47431624
3420,313635087.4743162
3738,26189110.152600795
2,5, 1, 5, 0,15, 0.00,60.00,Thursday
135,305270924.01591784
3420,305270924.01591784
3738,20204411.522502962
2,5, 1, 5, 0,16, 0.00,60.00,Thursday
135,307328145.2277261
3420,307328145.22772604
3738,15641762.127009023
2,5, 1, 5, 0,17, 0.00,60.00,Thursday
135,310668072.5367484
3420,310668072.5367484
3738,25321980.264788598
2,5, 1, 5, 0,18, 0.00,60.00,Thursday
135,245204217.15327978
3420,245204217.15327972
3738,11360594.494616006
2,5, 1, 5, 0,19, 0.00,60.00,Thursday
135,132042036.8060644
3420,132042036.8060644
3738,27641897.263884008
2,5, 1, 5, 0,20, 0.00,60.00,Thursday
135,113569604.38930234
3420,113569604.38930234
3738,55189392.54929912
2,5, 1, 5, 0,21, 0.00,60.00,Thursday
135,102910895.06207252
3420,102910895.06207252
3738,70472790.3214359
2,5, 1, 5, 0,22, 0.00,60.00,Thursday
135,98721004.34104869
3420,98721004.3410487
3738,86830424.99818718
2,5, 1, 5, 0,23, 0.00,60.00,Thursday
135,77772390.65670998
3420,77772390.65670998
3738,6791184.0
2,5, 1, 5, 0,24, 0.00,60.00,Thursday
135,72442274.24247962
3420,72442274.24247962
3738,6791184.0
2,6, 1, 6, 0, 1, 0.00,60.00,Friday
135,57996196.7332391
3420,57996196.7332391
3738,6791184.0
2,6, 1, 6, 0, 2, 0.00,60.00,Friday
135,57609860.1137362
3420,57609860.1137362
3738,6791184.0
2,6, 1, 6, 0, 3, 0.00,60.00,Friday
135,57609860.1137362
3420,57609860.1137362
3738,6791184.0
2,6, 1, 6, 0, 4, 0.00,60.00,Friday
135,57609860.1137362
3420,57609860.1137362
3738,6791184.0
2,6, 1, 6, 0, 5, 0.00,60.00,Friday
135,57609860.1137362
3420,57609860.1137362
3738,6791184.0
2,6, 1, 6, 0, 6, 0.00,60.00,Friday
135,57609860.1137362
3420,57609860.1137362
3738,6791184.0
2,6, 1, 6, 0, 7, 0.00,60.00,Friday
135,113850486.92441887
3420,113850486.92441887
3738,6791184.0
2,6, 1, 6, 0, 8, 0.00,60.00,Friday
135,209619789.8879652
3420,209619789.8879652
3738,181905129.42769635
2,6, 1, 6, 0, 9, 0.00,60.00,Friday
135,320404891.3323934
3420,320404891.33239335
3738,124995041.47262701
2,6, 1, 6, 0,10, 0.00,60.00,Friday
135,273148685.0972798
3420,273148685.0972798
3738,129342370.99468142
2,6, 1, 6, 0,11, 0.00,60.00,Friday
135,260013597.7953264
3420,260013597.7953264
3738,119724597.71047178
2,6, 1, 6, 0,12, 0.00,60.00,Friday
135,270983774.87890047
3420,270983774.8789004
3738,96085552.95710629
2,6, 1, 6, 0,13, 0.00,60.00,Friday
135,288673584.96217954
3420,288673584.96217954
3738,64552401.1487827
2,6, 1, 6, 0,14, 0.00,60.00,Friday
135,291773678.3612559
3420,291773678.3612559
3738,32795208.993215676
2,6, 1, 6, 0,15, 0.00,60.00,Friday
135,284480480.19636035
3420,284480480.19636023
3738,18937173.53961012
2,6, 1, 6, 0,16, 0.00,60.00,Friday
135,286123863.5968099
3420,286123863.59680986
3738,16083319.65701526
2,6, 1, 6, 0,17, 0.00,60.00,Friday
135,291428109.98186255
3420,291428109.9818625
3738,56525755.25908166
2,6, 1, 6, 0,18, 0.00,60.00,Friday
135,245003482.36862266
3420,245003482.36862263
3738,98544710.15348423
2,6, 1, 6, 0,19, 0.00,60.00,Friday
135,135033683.107431
3420,135033683.107431
3738,154257861.0864017
2,6, 1, 6, 0,20, 0.00,60.00,Friday
135,120102091.02937935
3420,120102091.02937934
3738,155130236.88560098
2,6, 1, 6, 0,21, 0.00,60.00,Friday
135,114542248.7712102
3420,114542248.7712102
3738,172202132.71045446
2,6, 1, 6, 0,22, 0.00,60.00,Friday
135,113986241.81178981
3420,113986241.81178981
3738,169782175.08914608
2,6, 1, 6, 0,23, 0.00,60.00,Friday
135,77772390.65670998
3420,77772390.65670998
3738,6791184.0
2,6, 1, 6, 0,24, 0.00,60.00,Friday
135,72442274.24247962
3420,72442274.24247962
3738,6791184.0
2,7, 1, 7, 0, 1, 0.00,60.00,Saturday
135,46745513.81922844
3420,46745513.81922843
3738,6791184.0
2,7, 1, 7, 0, 2, 0.00,60.00,Saturday
135,46359235.70955593
3420,46359235.709555924
3738,6791184.0
2,7, 1, 7, 0, 3, 0.00,60.00,Saturday
135,46359235.70955593
3420,46359235.709555924
3738,6791184.0
2,7, 1, 7, 0, 4, 0.00,60.00,Saturday
135,46359235.70955593
3420,46359235.709555924
3738,6791184.0
2,7, 1, 7, 0, 5, 0.00,60.00,Saturday
135,46359235.70955593
3420,46359235.709555924
3738,6791184.0
2,7, 1, 7, 0, 6, 0.00,60.00,Saturday
135,46359235.70955593
3420,46359235.709555924
3738,6791184.0
2,7, 1, 7, 0, 7, 0.00,60.00,Saturday
135,140608510.08846286
3420,140608510.08846283
3738,6791184.0
2,7, 1, 7, 0, 8, 0.00,60.00,Saturday
135,180443765.5932736
3420,180443765.59327358
3738,198716195.37085694
2,7, 1, 7, 0, 9, 0.00,60.00,Saturday
135,154202367.82625946
3420,154202367.82625946
3738,185828679.14916822
2,7, 1, 7, 0,10, 0.00,60.00,Saturday
135,149812565.4305643
3420,149812565.43056428
3738,175239044.2914436
2,7, 1, 7, 0,11, 0.00,60.00,Saturday
135,137000370.47262305
3420,137000370.47262305
3738,145700040.62023982
2,7, 1, 7, 0,12, 0.00,60.00,Saturday
135,140286488.80819705
3420,140286488.80819705
3738,115090332.27802673
2,7, 1, 7, 0,13, 0.00,60.00,Saturday
135,100026407.73807853
3420,100026407.73807853
3738,91697163.60419531
2,7, 1, 7, 0,14, 0.00,60.00,Saturday
135,89713239.36849843
3420,89713239.36849843
3738,88498054.9795688
2,7, 1, 7, 0,15, 0.00,60.00,Saturday
135,83505352.16110173
3420,83505352.16110173
3738,81847512.0013969
2,7, 1, 7, 0,16, 0.00,60.00,Saturday
135,82162111.47692764
3420,82162111.47692765
3738,88795022.43277213
2,7, 1, 7, 0,17, 0.00,60.00,Saturday
135,89428386.3936183
3420,89428386.39361832
3738,95626847.59753995
2,7, 1, 7, 0,18, 0.00,60.00,Saturday
135,83077160.33306564
3420,83077160.33306564
3738,106986478.14860481
2,7, 1, 7, 0,19, 0.00,60.00,Saturday
135,66276703.53612528
3420,66276703.53612528
3738,6791184.0
2,7, 1, 7, 0,20, 0.00,60.00,Saturday
135,49290893.81922844
3420,49290893.81922844
3738,6791184.0
2,7, 1, 7, 0,21, 0.00,60.00,Saturday
135,48904615.70955593
3420,48904615.70955593
3738,6791184.0
2,7, 1, 7, 0,22, 0.00,60.00,Saturday
135,48904615.70955593
3420,48904615.70955593
3738,6791184.0
2,7, 1, 7, 0,23, 0.00,60.00,Saturday
135,48904615.70955593
3420,48904615.70955593
3738,6791184.0
2,7, 1, 7, 0,24, 0.00,60.00,Saturday
135,48904615.70955593
3420,48904615.70955593
3738,6791184.0
2,8, 1, 8, 0, 1, 0.00,60.00,Sunday
135,46359235.70955593
3420,46359235.709555924
3738,6791184.0
2,8, 1, 8, 0, 2, 0.00,60.00,Sunday
135,46359235.70955593
3420,46359235.709555924
3738,6791184.0
2,8, 1, 8, 0, 3, 0.00,60.00,Sunday
135,46359235.70955593
3420,46359235.709555924
3738,6791184.0
2,8, 1, 8, 0, 4, 0.00,60.00,Sunday
135,46359235.70955593
3420,46359235.709555924
3738,6791184.0
2,8, 1, 8, 0, 5, 0.00,60.00,Sunday
135,46359235.70955593
3420,46359235.709555924
3738,6791184.0
2,8, 1, 8, 0, 6, 0.00,60.00,Sunday
135,46359235.70955593
3420,46359235.709555924
3738,6791184.0
2,8, 1, 8, 0, 7, 0.00,60.00,Sunday
135,66032185.73006148
3420,66032185.73006148
3738,6791184.0
2,8, 1, 8, 0, 8, 0.00,60.00,Sunday
135,53323580.330645084
3420,53323580.330645084
3738,6791184.0
2,8, 1, 8, 0, 9, 0.00,60.00,Sunday
135,46344166.24829911
3420,46344166.24829911
3738,6791184.0
2,8, 1, 8, 0,10, 0.00,60.00,Sunday
135,46288812.51597283
3420,46288812.51597283
3738,6791184.0
2,8, 1, 8, 0,11, 0.00,60.00,Sunday
135,46288812.51597283
3420,46288812.51597283
3738,6791184.0
2,8, 1, 8, 0,12, 0.00,60.00,Sunday
135,48276891.14440804
3420,48276891.14440803
3738,6791184.0
2,8, 1, 8, 0,13, 0.00,60.00,Sunday
135,53145731.24790785
3420,53145731.24790785
3738,6791184.0
2,8, 1, 8, 0,14, 0.00,60.00,Sunday
135,54222458.86507179
3420,54222458.86507179
3738,6791184.0
2,8, 1, 8, 0,15, 0.00,60.00,Sunday
135,53449702.37951809
3420,53449702.37951809
3738,6791184.0
2,8, 1, 8, 0,16, 0.00,60.00,Sunday
135,54053350.43371835
3420,54053350.43371836
3738,6791184.0
2,8, 1, 8, 0,17, 0.00,60.00,Sunday
135,47484546.116860524
3420,47484546.11686052
3738,6791184.0
2,8, 1, 8, 0,18, 0.00,60.00,Sunday
135,66276671.30593526
3420,66276671.30593526
3738,6791184.0
2,8, 1, 8, 0,19, 0.00,60.00,Sunday
135,57105773.81922845
3420,57105773.81922844
3738,6791184.0
2,8, 1, 8, 0,20, 0.00,60.00,Sunday
135,48904615.70955593
3420,48904615.70955593
3738,6791184.0
2,8, 1, 8, 0,21, 0.00,60.00,Sunday
135,48904615.70955593
3420,48904615.70955593
3738,6791184.0
2,8, 1, 8, 0,22, 0.00,60.00,Sunday
135,48904615.70955593
3420,48904615.70955593
3738,6791184.0
2,8, 1, 8, 0,23, 0.00,60.00,Sunday
135,48904615.70955593
3420,48904615.70955593
3738,6791184.0
2,8, 1, 8, 0,24, 0.00,60.00,Sunday
135,48904615.70955593
3420,48904615.70955593
3738,6791184.0
2,9, 1, 9, 0, 1, 0.00,60.00,Monday
135,57609860.1137362
3420,57609860.1137362
3738,6791184.0
2,9, 1, 9, 0, 2, 0.00,60.00,Monday
135,57609860.1137362
3420,57609860.1137362
3738,6791184.0
2,9, 1, 9, 0, 3, 0.00,60.00,Monday
135,57609860.1137362
3420,57609860.1137362
3738,6791184.0
2,9, 1, 9, 0, 4, 0.00,60.00,Monday
135,57609860.1137362
3420,57609860.1137362
3738,6791184.0
2,9, 1, 9, 0, 5, 0.00,60.00,Monday
135,57609860.1137362
3420,57609860.1137362
3738,6791184.0
2,9, 1, 9, 0, 6, 0.00,60.00,Monday
135,57609860.1137362
3420,57609860.1137362
3738,6791184.0
2,9, 1, 9, 0, 7, 0.00,60.00,Monday
135,147550888.41203406
3420,147550888.41203406
3738,6791184.0
2,9, 1, 9, 0, 8, 0.00,60.00,Monday
135,239881364.12557644
3420,239881364.12557644
3738,136175386.79383764
2,9, 1, 9, 0, 9, 0.00,60.00,Monday
135,318084534.3832204
3420,318084534.3832204
3738,84234996.35108623
2,9, 1, 9, 0,10, 0.00,60.00,Monday
135,273556985.43742055
3420,273556985.4374205
3738,59692385.25231293
2,9, 1, 9, 0,11, 0.00,60.00,Monday
135,266857244.4258735
3420,266857244.42587346
3738,25994322.16495552
2,9, 1, 9, 0,12, 0.00,60.00,Monday
135,283700667.9860353
3420,283700667.9860353
3738,20975394.075720113
2,9, 1, 9, 0,13, 0.00,60.00,Monday
135,282937066.19067776
3420,282937066.19067776
3738,31376988.268088482
2,9, 1, 9, 0,14, 0.00,60.00,Monday
135,295220360.34618497
3420,295220360.3461849
3738,26217054.269695096
2,9, 1, 9, 0,15, 0.00,60.00,Monday
135,288461971.0234672
3420,288461971.0234672
3738,20170882.030631263
2,9, 1, 9, 0,16, 0.00,60.00,Monday
135,295958945.6314409
3420,295958945.6314408
3738,15657194.729379753
2,9, 1, 9, 0,17, 0.00,60.00,Monday
135,305682113.3262063
3420,305682113.3262063
3738,25337020.82312467
2,9, 1, 9, 0,18, 0.00,60.00,Monday
135,239335342.8273954
3420,239335342.82739547
3738,12960048.790156517
2,9, 1, 9, 0,19, 0.00,60.00,Monday
135,131847069.40399274
3420,131847069.40399273
3738,33971972.43352857
2,9, 1, 9, 0,20, 0.00,60.00,Monday
135,115663299.86660439
3420,115663299.86660439
3738,43326650.191690214
2,9, 1, 9, 0,21, 0.00,60.00,Monday
135,106729318.25677499
3420,106729318.25677499
3738,34032236.76294108
2,9, 1, 9, 0,22, 0.00,60.00,Monday
135,104152064.10773942
3420,104152064.10773942
3738,39483134.17845747
2,9, 1, 9, 0,23, 0.00,60.00,Monday
135,77772390.65670998
3420,77772390.65670998
3738,6791184.0
2,9, 1, 9, 0,24, 0.00,60.00,Monday
135,72442274.24247962
3420,72442274.24247962
3738,6791184.0
2,10, 1,10, 0, 1, 0.00,60.00,Tuesday
135,57996196.7332391
3420,57996196.7332391
3738,6791184.0
2,10, 1,10, 0, 2, 0.00,60.00,Tuesday
135,57609860.1137362
3420,57609860.1137362
3738,6791184.0
2,10, 1,10, 0, 3, 0.00,60.00,Tuesday
135,57609860.1137362
3420,57609860.1137362
3738,6791184.0
2,10, 1,10, 0, 4, 0.00,60.00,Tuesday
135,57609860.1137362
3420,57609860.1137362
3738,6791184.0
2,10, 1,10, 0, 5, 0.00,60.00,Tuesday
135,57609860.1137362
3420,57609860.1137362
3738,6791184.0
2,10, 1,10, 0, 6, 0.00,60.00,Tuesday
135,57609860.1137362
3420,57609860.1137362
3738,6791184.0
2,10, 1,10, 0, 7, 0.00,60.00,Tuesday
135,118330557.35297932
3420,118330557.35297932
3738,6791184.0
2,10, 1,10, 0, 8, 0.00,60.00,Tuesday
135,205057697.00361606
3420,205057697.003616
3738,149737016.05515045
2,10, 1,10, 0, 9, 0.00,60.00,Tuesday
135,308267139.75476736
3420,308267139.7547675
3738,96794161.55228257
2,10, 1,10, 0,10, 0.00,60.00,Tuesday
135,267605627.01292938
3420,267605627.01292938
3738,77015198.99757469
2,10, 1,10, 0,11, 0.00,60.00,Tuesday
135,259694062.0424443
3420,259694062.04244426
3738,65343161.685645714
2,10, 1,10, 0,12, 0.00,60.00,Tuesday
135,269425796.146732
3420,269425796.146732
3738,76362125.19383255
2,10, 1,10, 0,13, 0.00,60.00,Tuesday
135,289635895.5702359
3420,289635895.5702359
3738,59120721.416223794
2,10, 1,10, 0,14, 0.00,60.00,Tuesday
135,284911505.63712543
3420,284911505.63712543
3738,37525109.37464152
2,10, 1,10, 0,15, 0.00,60.00,Tuesday
135,276414383.6017935
3420,276414383.60179347
3738,15816831.87583389
2,10, 1,10, 0,16, 0.00,60.00,Tuesday
135,278695161.47212034
3420,278695161.4721203
3738,17708065.996321972
2,10, 1,10, 0,17, 0.00,60.00,Tuesday
135,290932512.7916776
3420,290932512.79167753
3738,23197449.692421105
2,10, 1,10, 0,18, 0.00,60.00,Tuesday
135,249202237.85958433
3420,249202237.85958433
3738,38848221.83215541
2,10, 1,10, 0,19, 0.00,60.00,Tuesday
135,131106381.69988586
3420,131106381.69988583
3738,79629735.27173954
2,10, 1,10, 0,20, 0.00,60.00,Tuesday
135,114978996.54719172
3420,114978996.54719172
3738,83054811.31219152
2,10, 1,10, 0,21, 0.00,60.00,Tuesday
135,106601965.16988191
3420,106601965.16988192
3738,92322224.985414
2,10, 1,10, 0,22, 0.00,60.00,Tuesday
135,105873064.75829142
3420,105873064.75829145
3738,106730276.36015743
2,10, 1,10, 0,23, 0.00,60.00,Tuesday
135,77772390.65670998
3420,77772390.65670998
3738,6791184.0
2,10, 1,10, 0,24, 0.00,60.00,Tuesday
135,72442274.24247962
3420,72442274.24247962
3738,6791184.0
2,11, 1,11, 0, 1, 0.00,60.00,Wednesday
135,57996196.7332391
3420,57996196.7332391
3738,6791184.0
2,11, 1,11, 0, 2, 0.00,60.00,Wednesday
135,57609860.1137362
3420,57609860.1137362
3738,6791184.0
2,11, 1,11, 0, 3, 0.00,60.00,Wednesday
135,57609860.1137362
3420,57609860.1137362
3738,6791184.0
2,11, 1,11, 0, 4, 0.00,60.00,Wednesday
135,57609860.1137362
3420,57609860.1137362
3738,6791184.0
2,11, 1,11, 0, 5, 0.00,60.00,Wednesday
135,57609860.1137362
3420,57609860.1137362
3738,6791184.0
2,11, 1,11, 0, 6, 0.00,60.00,Wednesday
135,57609860.1137362
3420,57609860.1137362
3738,6791184.0
2,11, 1,11, 0, 7, 0.00,60.00,Wednesday
135,111640020.00302576
3420,111640020.00302576
3738,6791184.0
2,11, 1,11, 0, 8, 0.00,60.00,Wednesday
135,193339993.46829563
3420,193339993.46829563
3738,92733189.56161776
2,11, 1,11, 0, 9, 0.00,60.00,Wednesday
135,304642968.267955
3420,304642968.26795495
3738,63230491.267739624
2,11, 1,11, 0,10, 0.00,60.00,Wednesday
135,266961483.6081867
3420,266961483.6081867
3738,49557836.793227136
2,11, 1,11, 0,11, 0.00,60.00,Wednesday
135,260585084.41429576
3420,260585084.4142957
3738,22132959.711230285
2,11, 1,11, 0,12, 0.00,60.00,Wednesday
135,269248877.55432737
3420,269248877.55432737
3738,30332185.13640018
2,11, 1,11, 0,13, 0.00,60.00,Wednesday
135,275228890.22096103
3420,275228890.220961
3738,44122569.67531328
2,11, 1,11, 0,14, 0.00,60.00,Wednesday
135,273286275.5388209
3420,273286275.5388209
3738,32967194.113946773
2,11, 1,11, 0,15, 0.00,60.00,Wednesday
135,259306796.08297646
3420,259306796.08297646
3738,23478676.016705174
2,11, 1,11, 0,16, 0.00,60.00,Wednesday
135,259638112.42743438
3420,259638112.42743438
3738,30289200.917762335
2,11, 1,11, 0,17, 0.00,60.00,Wednesday
135,276792721.61834466
3420,276792721.61834466
3738,57990287.73396088
2,11, 1,11, 0,18, 0.00,60.00,Wednesday
135,241791114.5247978
3420,241791114.5247978
3738,61067290.5515843
2,11, 1,11, 0,19, 0.00,60.00,Wednesday
135,131838361.29571798
3420,131838361.29571798
3738,90036255.24603826
2,11, 1,11, 0,20, 0.00,60.00,Wednesday
135,114572472.46459582
3420,114572472.4645958
3738,98759699.49969773
2,11, 1,11, 0,21, 0.00,60.00,Wednesday
135,106417396.20924348
3420,106417396.20924349
3738,98165524.16402669
2,11, 1,11, 0,22, 0.00,60.00,Wednesday
135,104966243.52819459
3420,104966243.5281946
3738,109347518.9619292
2,11, 1,11, 0,23, 0.00,60.00,Wednesday
135,77772390.65670998
3420,77772390.65670998
3738,6791184.0
2,11, 1,11, 0,24, 0.00,60.00,Wednesday
135,72442274.24247962
3420,72442274.24247962
3738,6791184.0
2,12, 1,12, 0, 1, 0.00,60.00,Thursday
135,57996196.7332391
3420,57996196.7332391
3738,6791184.0
2,12, 1,12, 0, 2, 0.00,60.00,Thursday
135,57609860.1137362
3420,57609860.1137362
3738,6791184.0
2,12, 1,12, 0, 3, 0.00,60.00,Thursday
135,57609860.1137362
3420,57609860.1137362
3738,6791184.0
2,12, 1,12, 0, 4, 0.00,60.00,Thursday
135,57609860.1137362
3420,57609860.1137362
3738,6791184.0
2,12, 1,12, 0, 5, 0.00,60.00,Thursday
135,57609860.1137362
3420,57609860.1137362
3738,6791184.0
2,12, 1,12, 0, 6, 0.00,60.00,Thursday
135,57609860.1137362
3420,57609860.1137362
3738,6791184.0
2,12, 1,12, 0, 7, 0.00,60.00,Thursday
135,113507561.06512788
3420,113507561.06512788
3738,6791184.0
2,12, 1,12, 0, 8, 0.00,60.00,Thursday
135,196844194.64661315
3420,196844194.64661315
3738,139088253.95010453
2,12, 1,12, 0, 9, 0.00,60.00,Thursday
135,310979592.12473655
3420,310979592.1247366
3738,90652589.64454728
2,12, 1,12, 0,10, 0.00,60.00,Thursday
135,268255421.11036655
3420,268255421.11036658
3738,77575776.17978185
2,12, 1,12, 0,11, 0.00,60.00,Thursday
135,261538592.04661217
3420,261538592.04661217
3738,61669739.44805376
2,12, 1,12, 0,12, 0.00,60.00,Thursday
135,273598721.6017064
3420,273598721.6017063
3738,56295405.20414494
2,12, 1,12, 0,13, 0.00,60.00,Thursday
135,292729883.1866381
3420,292729883.18663806
3738,49219573.91685343
2,12, 1,12, 0,14, 0.00,60.00,Thursday
135,284359622.38430226
3420,284359622.38430226
3738,44723647.24989854
2,12, 1,12, 0,15, 0.00,60.00,Thursday
135,269015783.6240999
3420,269015783.6240999
3738,25515006.204435635
2,12, 1,12, 0,16, 0.00,60.00,Thursday
135,268857037.6090877
3420,268857037.60908765
3738,33355909.419416297
2,12, 1,12, 0,17, 0.00,60.00,Thursday
135,287461669.8052249
3420,287461669.80522484
3738,40343647.328976594
2,12, 1,12, 0,18, 0.00,60.00,Thursday
135,249510448.46344295
3420,249510448.46344295
3738,54139843.77187581
2,12, 1,12, 0,19, 0.00,60.00,Thursday
135,133950822.88609272
3420,133950822.8860927
3738,81065750.77167352
2,12, 1,12, 0,20, 0.00,60.00,Thursday
135,114010949.89761074
3420,114010949.89761074
3738,78341694.42203492
2,12, 1,12, 0,21, 0.00,60.00,Thursday
135,105494312.9583513
3420,105494312.95835134
3738,81955540.99246155
2,12, 1,12, 0,22, 0.00,60.00,Thursday
135,102831620.63454816
3420,102831620.63454816
3738,85002180.90399483
2,12, 1,12, 0,23, 0.00,60.00,Thursday
135,77772390.65670998
3420,77772390.65670998
3738,6791184.0
2,12, 1,12, 0,24, 0.00,60.00,Thursday
135,72442274.24247962
3420,72442274.24247962
3738,6791184.0
2,13, 1,13, 0, 1, 0.00,60.00,Friday
135,57996196.7332391
3420,57996196.7332391
3738,6791184.0