Program Version,EnergyPlus, Version 9.6.0-f420c06a69, YMD=2022.07.06 16:21
1,5,Environment Title[],Latitude[deg],Longitude[deg],Time Zone[],Elevation[m]
2,8,Day of Simulation[],Month[],Day of Month[],DST Indicator[1=yes 0=no],Hour[],StartMinute[],EndMinute[],DayType
3,5,Cumulative Day of Simulation[],Month[],Day of Month[],DST Indicator[1=yes 0=no],DayType  ! When Daily Meters Requested
4,2,Cumulative Days of Simulation[],Month[]  ! When Monthly Meters Requested
5,1,Cumulative Days of Simulation[] ! When Run Period Meters Requested
6,1,Calendar Year of Simulation[] ! When Annual Meters Requested
135,1,Electricity:Facility [J] !Hourly
3420,1,ElectricityNet:Facility [J] !Hourly
3738,1,NaturalGas:Facility [J] !Hourly
End of Data Dictionary
1,RUNPERIOD 1,  35.04,-106.62,  -7.00,1619.00
2,1, 1, 1, 0, 1, 0.00,60.00,Holiday
135,46359074.93593144
3420,46359074.93593143
3738,6791184.0
2,1, 1, 1, 0, 2, 0.00,60.00,Holiday
135,46359235.70955593
3420,46359235.709555924
3738,6791184.0
2,1, 1, 1, 0, 3, 0.00,60.00,Holiday
135,46359235.70955593
3420,46359235.709555924
3738,6791184.0
2,1, 1, 1, 0, 4, 0.00,60.00,Holiday
135,46359235.70955593
3420,46359235.709555924
3738,6791184.0
2,1, 1, 1, 0, 5, 0.00,60.00,Holiday
135,46359235.70955593
3420,46359235.709555924
3738,6791184.0
2,1, 1, 1, 0, 6, 0.00,60.00,Holiday
135,46359235.70955593
3420,46359235.709555924
3738,6791184.0
2,1, 1, 1, 0, 7, 0.00,60.00,Holiday
135,66032185.73006148
3420,66032185.73006148
3738,6791184.0
2,1, 1, 1, 0, 8, 0.00,60.00,Holiday
135,50074623.774579875
3420,50074623.774579875
3738,6791184.0
2,1, 1, 1, 0, 9, 0.00,60.00,Holiday
135,46351708.9331394
3420,46351708.9331394
3738,6791184.0
2,1, 1, 1, 0,10, 0.00,60.00,Holiday
135,46288813.17904917
3420,46288813.179049164
3738,6791184.0
2,1, 1, 1, 0,11, 0.00,60.00,Holiday
135,50556028.58634514
3420,50556028.58634514
3738,6791184.0
2,1, 1, 1, 0,12, 0.00,60.00,Holiday
135,53620061.07971074
3420,53620061.07971075
3738,6791184.0
2,1, 1, 1, 0,13, 0.00,60.00,Holiday
135,54251377.4482968
3420,54251377.44829681
3738,6791184.0
2,1, 1, 1, 0,14, 0.00,60.00,Holiday
135,58744815.664830714
3420,58744815.66483073
3738,6791184.0
2,1, 1, 1, 0,15, 0.00,60.00,Holiday
135,64652365.25448359
3420,64652365.25448359
3738,6791184.0
2,1, 1, 1, 0,16, 0.00,60.00,Holiday
135,62671968.53224909
3420,62671968.53224909
3738,6791184.0
2,1, 1, 1, 0,17, 0.00,60.00,Holiday
135,54610940.42094375
3420,54610940.42094375
3738,6791184.0
2,1, 1, 1, 0,18, 0.00,60.00,Holiday
135,66905826.86107348
3420,66905826.86107348
3738,6791184.0
2,1, 1, 1, 0,19, 0.00,60.00,Holiday
135,57105773.81922845
3420,57105773.81922844
3738,6791184.0
2,1, 1, 1, 0,20, 0.00,60.00,Holiday
135,48904615.70955593
3420,48904615.70955593
3738,6791184.0
2,1, 1, 1, 0,21, 0.00,60.00,Holiday
135,48904615.70955593
3420,48904615.70955593
3738,6791184.0
2,1, 1, 1, 0,22, 0.00,60.00,Holiday
135,48904615.70955593
3420,48904615.70955593
3738,6791184.0
2,1, 1, 1, 0,23, 0.00,60.00,Holiday
135,48904615.70955593
3420,48904615.70955593
3738,6791184.0
2,1, 1, 1, 0,24, 0.00,60.00,Holiday
135,48904615.70955593
3420,48904615.70955593
3738,6791184.0
2,2, 1, 2, 0, 1, 0.00,60.00,Monday
135,57609860.1137362
3420,57609860.1137362
3738,6791184.0
2,2, 1, 2, 0, 2, 0.00,60.00,Monday
135,57609860.1137362
3420,57609860.1137362
3738,6791184.0
2,2, 1, 2, 0, 3, 0.00,60.00,Monday
135,57609860.1137362
3420,57609860.1137362
3738,6791184.0
2,2, 1, 2, 0, 4, 0.00,60.00,Monday
135,57609860.1137362
3420,57609860.1137362
3738,6791184.0
2,2, 1, 2, 0, 5, 0.00,60.00,Monday
135,57609860.1137362
3420,57609860.1137362
3738,6791184.0
2,2, 1, 2, 0, 6, 0.00,60.00,Monday
135,57609860.1137362
3420,57609860.1137362
3738,6791184.0
2,2, 1, 2, 0, 7, 0.00,60.00,Monday
135,134878218.9732619
3420,134878218.97326186
3738,6791184.0
2,2, 1, 2, 0, 8, 0.00,60.00,Monday
135,224447349.34681612
3420,224447349.34681612
3738,144051788.3317502
2,2, 1, 2, 0, 9, 0.00,60.00,Monday
135,310113173.5226268
3420,310113173.52262676
3738,88876839.65152809
2,2, 1, 2, 0,10, 0.00,60.00,Monday
135,271365063.6523837
3420,271365063.6523836
3738,60265923.85270449
2,2, 1, 2, 0,11, 0.00,60.00,Monday
135,268042805.41555253
3420,268042805.41555253
3738,22324186.92765486
2,2, 1, 2, 0,12, 0.00,60.00,Monday
135,288256589.4717232
3420,288256589.4717232
3738,20876794.54329522
2,2, 1, 2, 0,13, 0.00,60.00,Monday
135,289626908.83261126
3420,289626908.83261126
3738,31334423.78333511
2,2, 1, 2, 0,14, 0.00,60.00,Monday
135,304560312.7598077
3420,304560312.75980777
3738,26165958.14784857
2,2, 1, 2, 0,15, 0.00,60.00,Monday
135,297207055.59561163
3420,297207055.5956117
3738,16649506.089210246
2,2, 1, 2, 0,16, 0.00,60.00,Monday
135,301765850.1485542
3420,301765850.1485542
3738,19089949.697671723
2,2, 1, 2, 0,17, 0.00,60.00,Monday
135,300883689.7626623
3420,300883689.7626623
3738,20696611.81849547
2,2, 1, 2, 0,18, 0.00,60.00,Monday
135,237763786.45298475
3420,237763786.45298478
3738,22828722.127478585
2,2, 1, 2, 0,19, 0.00,60.00,Monday
135,131185250.1779861
3420,131185250.1779861
3738,54000351.72755138
2,2, 1, 2, 0,20, 0.00,60.00,Monday
135,115788227.31176195
3420,115788227.31176195
3738,68630236.21559957
2,2, 1, 2, 0,21, 0.00,60.00,Monday
135,107180701.07736793
3420,107180701.07736793
3738,80740475.22169581
2,2, 1, 2, 0,22, 0.00,60.00,Monday
135,104935694.04120313
3420,104935694.04120316
3738,82360406.46165311
2,2, 1, 2, 0,23, 0.00,60.00,Monday
135,77772390.65670998
3420,77772390.65670998
3738,6791184.0
2,2, 1, 2, 0,24, 0.00,60.00,Monday
135,72442274.24247962
3420,72442274.24247962
3738,6791184.0
2,3, 1, 3, 0, 1, 0.00,60.00,Tuesday
135,57996196.7332391
3420,57996196.7332391
3738,6791184.0
2,3, 1, 3, 0, 2, 0.00,60.00,Tuesday
135,57609860.1137362
3420,57609860.1137362
3738,6791184.0
2,3, 1, 3, 0, 3, 0.00,60.00,Tuesday
135,57609860.1137362
3420,57609860.1137362
3738,6791184.0
2,3, 1, 3, 0, 4, 0.00,60.00,Tuesday
135,57609860.1137362
3420,57609860.1137362
3738,6791184.0
2,3, 1, 3, 0, 5, 0.00,60.00,Tuesday
135,57609860.1137362
3420,57609860.1137362
3738,6791184.0
2,3, 1, 3, 0, 6, 0.00,60.00,Tuesday
135,57609860.1137362
3420,57609860.1137362
3738,6791184.0
2,3, 1, 3, 0, 7, 0.00,60.00,Tuesday
135,110246891.9321736
3420,110246891.9321736
3738,6791184.0
2,3, 1, 3, 0, 8, 0.00,60.00,Tuesday
135,189787777.19002396
3420,189787777.19002393
3738,127893569.43827754
2,3, 1, 3, 0, 9, 0.00,60.00,Tuesday
135,311735474.6462774
3420,311735474.64627737
3738,74048611.90492582
2,3, 1, 3, 0,10, 0.00,60.00,Tuesday
135,277285498.1859546
3420,277285498.1859546
3738,33473696.454957783
2,3, 1, 3, 0,11, 0.00,60.00,Tuesday
135,276669119.4453627
3420,276669119.44536257
3738,11005409.7709702
2,3, 1, 3, 0,12, 0.00,60.00,Tuesday
135,294510040.65947235
3420,294510040.65947235
3738,23274910.85150368
2,3, 1, 3, 0,13, 0.00,60.00,Tuesday
135,296008760.87337774
3420,296008760.87337774
3738,31313196.53816751
2,3, 1, 3, 0,14, 0.00,60.00,Tuesday
135,312459596.2197046
3420,312459596.2197046
3738,26179341.570204668
2,3, 1, 3, 0,15, 0.00,60.00,Tuesday
135,300132587.72396576
3420,300132587.72396576
3738,20134709.813017763
2,3, 1, 3, 0,16, 0.00,60.00,Tuesday
135,303905456.6083193
3420,303905456.6083192
3738,15642458.513267582
2,3, 1, 3, 0,17, 0.00,60.00,Tuesday
135,306143708.642809
3420,306143708.6428089
3738,20958292.106283188
2,3, 1, 3, 0,18, 0.00,60.00,Tuesday
135,241887659.15678734
3420,241887659.15678728
3738,17408500.555825397
2,3, 1, 3, 0,19, 0.00,60.00,Tuesday
135,131936317.85543132
3420,131936317.85543132
3738,31714708.765812345
2,3, 1, 3, 0,20, 0.00,60.00,Tuesday
135,113569604.38930234
3420,113569604.38930234
3738,51650092.05562477
2,3, 1, 3, 0,21, 0.00,60.00,Tuesday
135,102910895.06207252
3420,102910895.06207252
3738,60710470.68437332
2,3, 1, 3, 0,22, 0.00,60.00,Tuesday
135,99700727.8095243
3420,99700727.80952433
3738,89792459.07201333
2,3, 1, 3, 0,23, 0.00,60.00,Tuesday
135,77772390.65670998
3420,77772390.65670998
3738,6791184.0
2,3, 1, 3, 0,24, 0.00,60.00,Tuesday
135,72442274.24247962
3420,72442274.24247962
3738,6791184.0
2,4, 1, 4, 0, 1, 0.00,60.00,Wednesday
135,57996196.7332391
3420,57996196.7332391
3738,6791184.0
2,4, 1, 4, 0, 2, 0.00,60.00,Wednesday
135,57609860.1137362
3420,57609860.1137362
3738,6791184.0
2,4, 1, 4, 0, 3, 0.00,60.00,Wednesday
135,57609860.1137362
3420,57609860.1137362
3738,6791184.0
2,4, 1, 4, 0, 4, 0.00,60.00,Wednesday
135,57609860.1137362
3420,57609860.1137362
3738,6791184.0
2,4, 1, 4, 0, 5, 0.00,60.00,Wednesday
135,57609860.1137362
3420,57609860.1137362
3738,6791184.0
2,4, 1, 4, 0, 6, 0.00,60.00,Wednesday
135,57609860.1137362
3420,57609860.1137362
3738,6791184.0
2,4, 1, 4, 0, 7, 0.00,60.00,Wednesday
135,106404852.69745946
3420,106404852.69745946
3738,6791184.0
2,4, 1, 4, 0, 8, 0.00,60.00,Wednesday
135,188565720.77044547
3420,188565720.77044547
3738,148199627.5746022
2,4, 1, 4, 0, 9, 0.00,60.00,Wednesday
135,309354701.0787325
3420,309354701.07873243
3738,87295595.8595211
2,4, 1, 4, 0,10, 0.00,60.00,Wednesday
135,271026351.7007154
3420,271026351.7007154
3738,59254591.49081121
2,4, 1, 4, 0,11, 0.00,60.00,Wednesday
135,265318671.5172772
3420,265318671.51727718
3738,39948447.48624557
2,4, 1, 4, 0,12, 0.00,60.00,Wednesday
135,279645244.1066742
3420,279645244.1066742
3738,25541763.37515947
2,4, 1, 4, 0,13, 0.00,60.00,Wednesday
135,285036500.36897314
3420,285036500.36897314
3738,31353602.7696282
2,4, 1, 4, 0,14, 0.00,60.00,Wednesday
135,290685247.22720414
3420,290685247.2272042
3738,26188331.40128117
2,4, 1, 4, 0,15, 0.00,60.00,Wednesday
135,275869938.016961
3420,275869938.016961
3738,20161876.077216543
2,4, 1, 4, 0,16, 0.00,60.00,Wednesday
135,275561594.01921284
3420,275561594.01921284
3738,15652007.014608864
2,4, 1, 4, 0,17, 0.00,60.00,Wednesday
135,295050112.0482503
3420,295050112.0482503
3738,25318932.60453754
2,4, 1, 4, 0,18, 0.00,60.00,Wednesday
135,250937232.52106398
3420,250937232.521064
3738,18172635.687563766
2,4, 1, 4, 0,19, 0.00,60.00,Wednesday
135,131963474.08535361
3420,131963474.08535364
3738,34092719.66975884
2,4, 1, 4, 0,20, 0.00,60.00,Wednesday
135,113569604.38930234
3420,113569604.38930234
3738,48641009.18389044
2,4, 1, 4, 0,21, 0.00,60.00,Wednesday
135,102910895.06207252
3420,102910895.06207252
3738,62017398.94849987
2,4, 1, 4, 0,22, 0.00,60.00,Wednesday
135,98643202.27409184
3420,98643202.27409185
3738,73472639.48549943
2,4, 1, 4, 0,23, 0.00,60.00,Wednesday
135,77772390.65670998
3420,77772390.65670998
3738,6791184.0
2,4, 1, 4, 0,24, 0.00,60.00,Wednesday
135,72442274.24247962
3420,72442274.24247962
3738,6791184.0
2,5, 1, 5, 0, 1, 0.00,60.00,Thursday
135,57996196.7332391
3420,57996196.7332391
3738,6791184.0
2,5, 1, 5, 0, 2, 0.00,60.00,Thursday
135,57609860.1137362
3420,57609860.1137362
3738,6791184.0
2,5, 1, 5, 0, 3, 0.00,60.00,Thursday
135,57609860.1137362
3420,57609860.1137362
3738,6791184.0
2,5, 1, 5, 0, 4, 0.00,60.00,Thursday
135,57609860.1137362
3420,57609860.1137362
3738,6791184.0
2,5, 1, 5, 0, 5, 0.00,60.00,Thursday
135,57609860.1137362
3420,57609860.1137362
3738,6791184.0
2,5, 1, 5, 0, 6, 0.00,60.00,Thursday
135,57609860.1137362
3420,57609860.1137362
3738,6791184.0
2,5, 1, 5, 0, 7, 0.00,60.00,Thursday
135,99605482.22971714
3420,99605482.22971717
3738,6791184.0
2,5, 1, 5, 0, 8, 0.00,60.00,Thursday
135,176848803.66143382
3420,176848803.66143382
3738,118918519.20036617
2,5, 1, 5, 0, 9, 0.00,60.00,Thursday
135,310410716.45027816
3420,310410716.45027816
3738,63718647.53624899
2,5, 1, 5, 0,10, 0.00,60.00,Thursday
135,279145913.06611407
3420,279145913.06611407
3738,18769758.24929616
2,5, 1, 5, 0,11, 0.00,60.00,Thursday
135,278477659.7647417
3420,278477659.76474166
3738,11332778.247828975
2,5, 1, 5, 0,12, 0.00,60.00,Thursday
135,291018123.9829017
3420,291018123.9829017
3738,20890680.988424744
2,5, 1, 5, 0,13, 0.00,60.00,Thursday
135,291884732.64979345
3420,291884732.6497935
3738,31320938.161408074
2,5, 1, 5, 0,14, 0.00,60.00,Thursday
135,314588481.8216781
3420,314588481.8216781
3738,26189110.105443515
2,5, 1, 5, 0,15, 0.00,60.00,Thursday
135,307964088.8082272
3420,307964088.8082271
3738,20204411.469256587
2,5, 1, 5, 0,16, 0.00,60.00,Thursday
135,311795498.4440459
3420,311795498.44404584
3738,15641762.104225928
2,5, 1, 5, 0,17, 0.00,60.00,Thursday
135,314785696.07502025
3420,314785696.07502025
3738,25321980.125197552
2,5, 1, 5, 0,18, 0.00,60.00,Thursday
135,245034952.2600156
3420,245034952.26001555
3738,11105506.040833417
2,5, 1, 5, 0,19, 0.00,60.00,Thursday
135,132573443.45313579
3420,132573443.45313579
3738,16555481.42229817
2,5, 1, 5, 0,20, 0.00,60.00,Thursday
135,113569604.38930234
3420,113569604.38930234
3738,34414366.35249759
2,5, 1, 5, 0,21, 0.00,60.00,Thursday
135,102910895.06207252
3420,102910895.06207252
3738,46617038.61522231
2,5, 1, 5, 0,22, 0.00,60.00,Thursday
135,98267997.61519502
3420,98267997.61519504
3738,60475483.2077232
2,5, 1, 5, 0,23, 0.00,60.00,Thursday
135,77772390.65670998
3420,77772390.65670998
3738,6791184.0
2,5, 1, 5, 0,24, 0.00,60.00,Thursday
135,72442274.24247962
3420,72442274.24247962
3738,6791184.0
2,6, 1, 6, 0, 1, 0.00,60.00,Friday
135,57996196.7332391
3420,57996196.7332391
3738,6791184.0
2,6, 1, 6, 0, 2, 0.00,60.00,Friday
135,57609860.1137362
3420,57609860.1137362
3738,6791184.0
2,6, 1, 6, 0, 3, 0.00,60.00,Friday
135,57609860.1137362
3420,57609860.1137362
3738,6791184.0
2,6, 1, 6, 0, 4, 0.00,60.00,Friday
135,57609860.1137362
3420,57609860.1137362
3738,6791184.0
2,6, 1, 6, 0, 5, 0.00,60.00,Friday
135,57609860.1137362
3420,57609860.1137362
3738,6791184.0
2,6, 1, 6, 0, 6, 0.00,60.00,Friday
135,57609860.1137362
3420,57609860.1137362
3738,6791184.0
2,6, 1, 6, 0, 7, 0.00,60.00,Friday
135,103332675.77662693
3420,103332675.77662693
3738,6791184.0
2,6, 1, 6, 0, 8, 0.00,60.00,Friday
135,188996787.99626085
3420,188996787.99626082
3738,123669341.24950238
2,6, 1, 6, 0, 9, 0.00,60.00,Friday
135,312823764.835119
3420,312823764.835119
3738,87141638.73130357
2,6, 1, 6, 0,10, 0.00,60.00,Friday
135,269947992.86958563
3420,269947992.8695856
3738,79633206.58854693
2,6, 1, 6, 0,11, 0.00,60.00,Friday
135,262520791.2102518
3420,262520791.2102518
3738,69104251.40758911
2,6, 1, 6, 0,12, 0.00,60.00,Friday
135,280381312.9326463
3420,280381312.9326462
3738,46192133.16639331
2,6, 1, 6, 0,13, 0.00,60.00,Friday
135,289606371.5740332
3420,289606371.57403314
3738,27998984.710618816
2,6, 1, 6, 0,14, 0.00,60.00,Friday
135,306463437.7267387
3420,306463437.72673863
3738,27469936.20340094
2,6, 1, 6, 0,15, 0.00,60.00,Friday
135,299170989.6144536
3420,299170989.61445355
3738,18996855.386032432
2,6, 1, 6, 0,16, 0.00,60.00,Friday
135,302357418.5898717
3420,302357418.58987164
3738,15649127.287257463
2,6, 1, 6, 0,17, 0.00,60.00,Friday
135,306425990.3061273
3420,306425990.30612725
3738,25324708.454373885
2,6, 1, 6, 0,18, 0.00,60.00,Friday
135,251089302.51449898
3420,251089302.51449898
3738,51878518.987101994
2,6, 1, 6, 0,19, 0.00,60.00,Friday
135,131520703.4104164
3420,131520703.41041641
3738,78826069.8962755
2,6, 1, 6, 0,20, 0.00,60.00,Friday
135,113582851.6557531
3420,113582851.6557531
3738,82143282.3938118
2,6, 1, 6, 0,21, 0.00,60.00,Friday
135,104573514.80358131
3420,104573514.80358131
3738,99561176.27974844
2,6, 1, 6, 0,22, 0.00,60.00,Friday
135,101327025.08401453
3420,101327025.08401453
3738,98386088.28740925
2,6, 1, 6, 0,23, 0.00,60.00,Friday
135,77772390.65670998
3420,77772390.65670998
3738,6791184.0
2,6, 1, 6, 0,24, 0.00,60.00,Friday
135,72442274.24247962
3420,72442274.24247962
3738,6791184.0
2,7, 1, 7, 0, 1, 0.00,60.00,Saturday
135,46745513.81922844
3420,46745513.81922843
3738,6791184.0
2,7, 1, 7, 0, 2, 0.00,60.00,Saturday
135,46359235.70955593
3420,46359235.709555924
3738,6791184.0
2,7, 1, 7, 0, 3, 0.00,60.00,Saturday
135,46359235.70955593
3420,46359235.709555924
3738,6791184.0
2,7, 1, 7, 0, 4, 0.00,60.00,Saturday
135,46359235.70955593
3420,46359235.709555924
3738,6791184.0
2,7, 1, 7, 0, 5, 0.00,60.00,Saturday
135,46359235.70955593
3420,46359235.709555924
3738,6791184.0
2,7, 1, 7, 0, 6, 0.00,60.00,Saturday
135,46359235.70955593
3420,46359235.709555924
3738,6791184.0
2,7, 1, 7, 0, 7, 0.00,60.00,Saturday
135,113016117.3430983
3420,113016117.34309831
3738,6791184.0
2,7, 1, 7, 0, 8, 0.00,60.00,Saturday
135,143072935.7353818
3420,143072935.73538178
3738,133157606.21309529
2,7, 1, 7, 0, 9, 0.00,60.00,Saturday
135,134734908.11692047
3420,134734908.11692047
3738,115870466.95728682
2,7, 1, 7, 0,10, 0.00,60.00,Saturday
135,136047504.86548266
3420,136047504.86548266
3738,102431794.7756783
2,7, 1, 7, 0,11, 0.00,60.00,Saturday
135,128710815.5737658
3420,128710815.5737658
3738,74665819.4893011
2,7, 1, 7, 0,12, 0.00,60.00,Saturday
135,138005994.57032537
3420,138005994.57032537
3738,34189481.19913177
2,7, 1, 7, 0,13, 0.00,60.00,Saturday
135,97456237.63583957
3420,97456237.63583957
3738,22148128.223902248
2,7, 1, 7, 0,14, 0.00,60.00,Saturday
135,86587992.63802949
3420,86587992.63802949
3738,22704440.54151269
2,7, 1, 7, 0,15, 0.00,60.00,Saturday
135,80777988.06353001
3420,80777988.06353001
3738,20243343.21973332
2,7, 1, 7, 0,16, 0.00,60.00,Saturday
135,76272443.21280752
3420,76272443.21280752
3738,28320104.76696911
2,7, 1, 7, 0,17, 0.00,60.00,Saturday
135,79322834.53453569
3420,79322834.5345357
3738,37294449.64424457
2,7, 1, 7, 0,18, 0.00,60.00,Saturday
135,83077160.33306564
3420,83077160.33306564
3738,51886306.6224401
2,7, 1, 7, 0,19, 0.00,60.00,Saturday
135,66276703.53612528
3420,66276703.53612528
3738,6791184.0
2,7, 1, 7, 0,20, 0.00,60.00,Saturday
135,49290893.81922844
3420,49290893.81922844
3738,6791184.0
2,7, 1, 7, 0,21, 0.00,60.00,Saturday
135,48904615.70955593
3420,48904615.70955593
3738,6791184.0
2,7, 1, 7, 0,22, 0.00,60.00,Saturday
135,48904615.70955593
3420,48904615.70955593
3738,6791184.0
2,7, 1, 7, 0,23, 0.00,60.00,Saturday
135,48904615.70955593
3420,48904615.70955593
3738,6791184.0
2,7, 1, 7, 0,24, 0.00,60.00,Saturday
135,48904615.70955593
3420,48904615.70955593
3738,6791184.0
2,8, 1, 8, 0, 1, 0.00,60.00,Sunday
135,46359235.70955593
3420,46359235.709555924
3738,6791184.0
2,8, 1, 8, 0, 2, 0.00,60.00,Sunday
135,46359235.70955593
3420,46359235.709555924
3738,6791184.0
2,8, 1, 8, 0, 3, 0.00,60.00,Sunday
135,46359235.70955593
3420,46359235.709555924
3738,6791184.0
2,8, 1, 8, 0, 4, 0.00,60.00,Sunday
135,46359235.70955593
3420,46359235.709555924
3738,6791184.0
2,8, 1, 8, 0, 5, 0.00,60.00,Sunday
135,46359235.70955593
3420,46359235.709555924
3738,6791184.0
2,8, 1, 8, 0, 6, 0.00,60.00,Sunday
135,46359235.70955593
3420,46359235.709555924
3738,6791184.0
2,8, 1, 8, 0, 7, 0.00,60.00,Sunday
135,66032185.73006148
3420,66032185.73006148
3738,6791184.0
2,8, 1, 8, 0, 8, 0.00,60.00,Sunday
135,53323580.330645084
3420,53323580.330645084
3738,6791184.0
2,8, 1, 8, 0, 9, 0.00,60.00,Sunday
135,46344166.24829911
3420,46344166.24829911
3738,6791184.0
2,8, 1, 8, 0,10, 0.00,60.00,Sunday
135,46288812.51597283
3420,46288812.51597283
3738,6791184.0
2,8, 1, 8, 0,11, 0.00,60.00,Sunday
135,47482213.228186585
3420,47482213.22818658
3738,6791184.0
2,8, 1, 8, 0,12, 0.00,60.00,Sunday
135,51489275.124179274
3420,51489275.124179274
3738,6791184.0
2,8, 1, 8, 0,13, 0.00,60.00,Sunday
135,53572954.9220478
3420,53572954.9220478
3738,6791184.0
2,8, 1, 8, 0,14, 0.00,60.00,Sunday
135,54336984.02188319
3420,54336984.02188319
3738,6791184.0
2,8, 1, 8, 0,15, 0.00,60.00,Sunday
135,53604861.45511107
3420,53604861.45511109
3738,6791184.0
2,8, 1, 8, 0,16, 0.00,60.00,Sunday
135,54153640.12748222
3420,54153640.12748223
3738,6791184.0
2,8, 1, 8, 0,17, 0.00,60.00,Sunday
135,49057403.79324109
3420,49057403.79324109
3738,6791184.0
2,8, 1, 8, 0,18, 0.00,60.00,Sunday
135,66276671.30593526
3420,66276671.30593526
3738,6791184.0
2,8, 1, 8, 0,19, 0.00,60.00,Sunday
135,57105773.81922845
3420,57105773.81922844
3738,6791184.0
2,8, 1, 8, 0,20, 0.00,60.00,Sunday
135,48904615.70955593
3420,48904615.70955593
3738,6791184.0
2,8, 1, 8, 0,21, 0.00,60.00,Sunday
135,48904615.70955593
3420,48904615.70955593
3738,6791184.0
2,8, 1, 8, 0,22, 0.00,60.00,Sunday
135,48904615.70955593
3420,48904615.70955593
3738,6791184.0
2,8, 1, 8, 0,23, 0.00,60.00,Sunday
135,48904615.70955593
3420,48904615.70955593
3738,6791184.0
2,8, 1, 8, 0,24, 0.00,60.00,Sunday
135,48904615.70955593
3420,48904615.70955593
3738,6791184.0
2,9, 1, 9, 0, 1, 0.00,60.00,Monday
135,57609860.1137362
3420,57609860.1137362
3738,6791184.0
2,9, 1, 9, 0, 2, 0.00,60.00,Monday
135,57609860.1137362
3420,57609860.1137362
3738,6791184.0
2,9, 1, 9, 0, 3, 0.00,60.00,Monday
135,57609860.1137362
3420,57609860.1137362
3738,6791184.0
2,9, 1, 9, 0, 4, 0.00,60.00,Monday
135,57609860.1137362
3420,57609860.1137362
3738,6791184.0
2,9, 1, 9, 0, 5, 0.00,60.00,Monday
135,57609860.1137362
3420,57609860.1137362
3738,6791184.0
2,9, 1, 9, 0, 6, 0.00,60.00,Monday
135,57609860.1137362
3420,57609860.1137362
3738,6791184.0
2,9, 1, 9, 0, 7, 0.00,60.00,Monday
135,130715343.1870099
3420,130715343.18700989
3738,6791184.0
2,9, 1, 9, 0, 8, 0.00,60.00,Monday
135,219682564.35065305
3420,219682564.350653
3738,134482850.7707697
2,9, 1, 9, 0, 9, 0.00,60.00,Monday
135,314656337.10247767
3420,314656337.10247755
3738,82072517.58060475
2,9, 1, 9, 0,10, 0.00,60.00,Monday
135,274606705.98845744
3420,274606705.9884574
3738,56508163.01092328
2,9, 1, 9, 0,11, 0.00,60.00,Monday
135,270167658.6492782
3420,270167658.6492782
3738,21069428.882987134
2,9, 1, 9, 0,12, 0.00,60.00,Monday
135,288167230.4752291
3420,288167230.4752291
3738,20903861.0527373
2,9, 1, 9, 0,13, 0.00,60.00,Monday
135,291131061.75206363
3420,291131061.75206363
3738,31355574.63840212
2,9, 1, 9, 0,14, 0.00,60.00,Monday
135,307281780.9974716
3420,307281780.9974715
3738,26214925.41615276
2,9, 1, 9, 0,15, 0.00,60.00,Monday
135,301709239.0311225
3420,301709239.03112245
3738,20171152.231022652
2,9, 1, 9, 0,16, 0.00,60.00,Monday
135,310461196.052739
3420,310461196.05273896
3738,15658121.06926898
2,9, 1, 9, 0,17, 0.00,60.00,Monday
135,320990872.3134056
3420,320990872.3134055
3738,25336592.89463064
2,9, 1, 9, 0,18, 0.00,60.00,Monday
135,242093219.8482714
3420,242093219.84827137
3738,12476940.926137857
2,9, 1, 9, 0,19, 0.00,60.00,Monday
135,131842338.02647585
3420,131842338.02647585
3738,31510318.087111738
2,9, 1, 9, 0,20, 0.00,60.00,Monday
135,113655801.47684747
3420,113655801.47684748
3738,40715343.077391095
2,9, 1, 9, 0,21, 0.00,60.00,Monday
135,104151276.66991854
3420,104151276.66991857
3738,30532919.81013193
2,9, 1, 9, 0,22, 0.00,60.00,Monday
135,101090554.8034057
3420,101090554.8034057
3738,37790780.52642954
2,9, 1, 9, 0,23, 0.00,60.00,Monday
135,77772390.65670998
3420,77772390.65670998
3738,6791184.0
2,9, 1, 9, 0,24, 0.00,60.00,Monday
135,72442274.24247962
3420,72442274.24247962
3738,6791184.0
2,10, 1,10, 0, 1, 0.00,60.00,Tuesday
135,57996196.7332391
3420,57996196.7332391
3738,6791184.0
2,10, 1,10, 0, 2, 0.00,60.00,Tuesday
135,57609860.1137362
3420,57609860.1137362
3738,6791184.0
2,10, 1,10, 0, 3, 0.00,60.00,Tuesday
135,57609860.1137362
3420,57609860.1137362
3738,6791184.0
2,10, 1,10, 0, 4, 0.00,60.00,Tuesday
135,57609860.1137362
3420,57609860.1137362
3738,6791184.0
2,10, 1,10, 0, 5, 0.00,60.00,Tuesday
135,57609860.1137362
3420,57609860.1137362
3738,6791184.0
2,10, 1,10, 0, 6, 0.00,60.00,Tuesday
135,57609860.1137362
3420,57609860.1137362
3738,6791184.0
2,10, 1,10, 0, 7, 0.00,60.00,Tuesday
135,112743419.72458056
3420,112743419.72458057
3738,6791184.0
2,10, 1,10, 0, 8, 0.00,60.00,Tuesday
135,194536906.4601799
3420,194536906.46017987
3738,148748808.68372992
2,10, 1,10, 0, 9, 0.00,60.00,Tuesday
135,308445180.4979211
3420,308445180.4979211
3738,95505208.8855587
2,10, 1,10, 0,10, 0.00,60.00,Tuesday
135,269220621.0351043
3420,269220621.0351043
3738,74251256.03050202
2,10, 1,10, 0,11, 0.00,60.00,Tuesday
135,261718130.34360152
3420,261718130.3436015
3738,64090557.00179692
2,10, 1,10, 0,12, 0.00,60.00,Tuesday
135,271514562.3377479
3420,271514562.3377478
3738,74828779.38592727
2,10, 1,10, 0,13, 0.00,60.00,Tuesday
135,290220582.07562196
3420,290220582.075622
3738,56268057.869157895
2,10, 1,10, 0,14, 0.00,60.00,Tuesday
135,287350063.0964985
3420,287350063.0964985
3738,35946043.87475684
2,10, 1,10, 0,15, 0.00,60.00,Tuesday
135,279306633.25846285
3420,279306633.2584628
3738,16104485.305993374
2,10, 1,10, 0,16, 0.00,60.00,Tuesday
135,281516688.827334
3420,281516688.8273339
3738,17413214.351515688
2,10, 1,10, 0,17, 0.00,60.00,Tuesday
135,292258477.5401023
3420,292258477.54010224
3738,24729811.38057591
2,10, 1,10, 0,18, 0.00,60.00,Tuesday
135,249389575.94356522
3420,249389575.94356522
3738,53522177.29399839
2,10, 1,10, 0,19, 0.00,60.00,Tuesday
135,131377847.5807573
3420,131377847.5807573
3738,109568167.50602347
2,10, 1,10, 0,20, 0.00,60.00,Tuesday
135,115198948.91850129
3420,115198948.91850129
3738,119415803.03072849
2,10, 1,10, 0,21, 0.00,60.00,Tuesday
135,107492280.86034536
3420,107492280.86034536
3738,134830697.73076457
2,10, 1,10, 0,22, 0.00,60.00,Tuesday
135,108222215.67579809
3420,108222215.67579812
3738,151974678.63244724
2,10, 1,10, 0,23, 0.00,60.00,Tuesday
135,77772390.65670998
3420,77772390.65670998
3738,6791184.0
2,10, 1,10, 0,24, 0.00,60.00,Tuesday
135,72442274.24247962
3420,72442274.24247962
3738,6791184.0
2,11, 1,11, 0, 1, 0.00,60.00,Wednesday
135,57996196.7332391
3420,57996196.7332391
3738,6791184.0
2,11, 1,11, 0, 2, 0.00,60.00,Wednesday
135,57609860.1137362
3420,57609860.1137362
3738,6791184.0
2,11, 1,11, 0, 3, 0.00,60.00,Wednesday
135,57609860.1137362
3420,57609860.1137362
3738,6791184.0
2,11, 1,11, 0, 4, 0.00,60.00,Wednesday
135,57609860.1137362
3420,57609860.1137362
3738,6791184.0
2,11, 1,11, 0, 5, 0.00,60.00,Wednesday
135,57609860.1137362
3420,57609860.1137362
3738,6791184.0
2,11, 1,11, 0, 6, 0.00,60.00,Wednesday
135,57609860.1137362
3420,57609860.1137362
3738,6791184.0
2,11, 1,11, 0, 7, 0.00,60.00,Wednesday
135,128114801.16950187
3420,128114801.16950187
3738,6791184.0
2,11, 1,11, 0, 8, 0.00,60.00,Wednesday
135,207865472.52534586
3420,207865472.52534586
3738,123589204.3109577
2,11, 1,11, 0, 9, 0.00,60.00,Wednesday
135,314399254.19759065
3420,314399254.1975906
3738,78643484.92033623
2,11, 1,11, 0,10, 0.00,60.00,Wednesday
135,273199473.9682464
3420,273199473.9682464
3738,61925646.94522758
2,11, 1,11, 0,11, 0.00,60.00,Wednesday
135,267299151.73975378
3420,267299151.73975378
3738,30884180.026939653
2,11, 1,11, 0,12, 0.00,60.00,Wednesday
135,280116895.02490276
3420,280116895.02490276
3738,33544296.66755928
2,11, 1,11, 0,13, 0.00,60.00,Wednesday
135,288040536.5045027
3420,288040536.5045027
3738,46173568.772670336
2,11, 1,11, 0,14, 0.00,60.00,Wednesday
135,285434209.22310007
3420,285434209.22310007
3738,34007337.92046418
2,11, 1,11, 0,15, 0.00,60.00,Wednesday
135,270136298.2478612
3420,270136298.2478612
3738,25154060.102423884
2,11, 1,11, 0,16, 0.00,60.00,Wednesday
135,269102615.0145769
3420,269102615.0145769
3738,31264392.899294652
2,11, 1,11, 0,17, 0.00,60.00,Wednesday
135,285966426.32681394
3420,285966426.32681394
3738,58497911.314474575
2,11, 1,11, 0,18, 0.00,60.00,Wednesday
135,248402992.27220154
3420,248402992.27220154
3738,61317933.93139902
2,11, 1,11, 0,19, 0.00,60.00,Wednesday
135,132157188.70383477
3420,132157188.70383476
3738,90219633.39529829
2,11, 1,11, 0,20, 0.00,60.00,Wednesday
135,115413148.6625435
3420,115413148.66254352
3738,99011076.37490314
2,11, 1,11, 0,21, 0.00,60.00,Wednesday
135,107687648.63063271
3420,107687648.63063273
3738,98452819.3233264
2,11, 1,11, 0,22, 0.00,60.00,Wednesday
135,106447682.54215997
3420,106447682.54216
3738,109117938.07326171
2,11, 1,11, 0,23, 0.00,60.00,Wednesday
135,77772390.65670998
3420,77772390.65670998
3738,6791184.0
2,11, 1,11, 0,24, 0.00,60.00,Wednesday
135,72442274.24247962
3420,72442274.24247962
3738,6791184.0
2,12, 1,12, 0, 1, 0.00,60.00,Thursday
135,57996196.7332391
3420,57996196.7332391
3738,6791184.0
2,12, 1,12, 0, 2, 0.00,60.00,Thursday
135,57609860.1137362
3420,57609860.1137362
3738,6791184.0
2,12, 1,12, 0, 3, 0.00,60.00,Thursday
135,57609860.1137362
3420,57609860.1137362
3738,6791184.0
2,12, 1,12, 0, 4, 0.00,60.00,Thursday
135,57609860.1137362
3420,57609860.1137362
3738,6791184.0
2,12, 1,12, 0, 5, 0.00,60.00,Thursday
135,57609860.1137362
3420,57609860.1137362
3738,6791184.0
2,12, 1,12, 0, 6, 0.00,60.00,Thursday
135,57609860.1137362
3420,57609860.1137362
3738,6791184.0
2,12, 1,12, 0, 7, 0.00,60.00,Thursday
135,114907344.85725968
3420,114907344.85725966
3738,6791184.0
2,12, 1,12, 0, 8, 0.00,60.00,Thursday
135,198689197.80186945
3420,198689197.80186945
3738,139297869.3619308
2,12, 1,12, 0, 9, 0.00,60.00,Thursday
135,311767284.561679
3420,311767284.561679
3738,90922879.77306242
2,12, 1,12, 0,10, 0.00,60.00,Thursday
135,268525158.2830119
3420,268525158.2830119
3738,77983741.08451748
2,12, 1,12, 0,11, 0.00,60.00,Thursday
135,261557661.39758193
3420,261557661.39758193
3738,61873127.34189053
2,12, 1,12, 0,12, 0.00,60.00,Thursday
135,273578850.84799373
3420,273578850.8479937
3738,56702422.493532
2,12, 1,12, 0,13, 0.00,60.00,Thursday
135,292816773.59318435
3420,292816773.59318435
3738,50239516.116406895
2,12, 1,12, 0,14, 0.00,60.00,Thursday
135,284312478.71120167
3420,284312478.7112017
3738,45295536.42420629
2,12, 1,12, 0,15, 0.00,60.00,Thursday
135,268992397.05095613
3420,268992397.05095613
3738,26524816.02649463
2,12, 1,12, 0,16, 0.00,60.00,Thursday
135,268829142.1981807
3420,268829142.1981807
3738,33906917.4354097
2,12, 1,12, 0,17, 0.00,60.00,Thursday
135,287439813.57676876
3420,287439813.57676876
3738,40746231.09224492
2,12, 1,12, 0,18, 0.00,60.00,Thursday
135,249465323.83475667
3420,249465323.8347567
3738,54260961.65197122
2,12, 1,12, 0,19, 0.00,60.00,Thursday
135,134134250.83553576
3420,134134250.83553576
3738,81262914.77413073
2,12, 1,12, 0,20, 0.00,60.00,Thursday
135,114243776.29358488
3420,114243776.29358487
3738,78495827.3020098
2,12, 1,12, 0,21, 0.00,60.00,Thursday
135,105872595.94128102
3420,105872595.94128102
3738,82109690.7303231
2,12, 1,12, 0,22, 0.00,60.00,Thursday
135,103352611.0733775
3420,103352611.0733775
3738,85107258.06473932
2,12, 1,12, 0,23, 0.00,60.00,Thursday
135,77772390.65670998
3420,77772390.65670998
3738,6791184.0
2,12, 1,12, 0,24, 0.00,60.00,Thursday
135,72442274.24247962
3420,72442274.24247962
3738,6791184.0
2,13, 1,13, 0, 1, 0.00,60.00,Friday
135,57996196.7332391
3420,57996196.7332391
3738,6791184.0
2,13, 1,13, 0, 2, 0.00,60.00,Friday