Program Version,EnergyPlus, Version 9.6.0-f420c06a69, YMD=2022.07.05 14:39
1,5,Environment Title[],Latitude[deg],Longitude[deg],Time Zone[],Elevation[m]
2,8,Day of Simulation[],Month[],Day of Month[],DST Indicator[1=yes 0=no],Hour[],StartMinute[],EndMinute[],DayType
3,5,Cumulative Day of Simulation[],Month[],Day of Month[],DST Indicator[1=yes 0=no],DayType  ! When Daily Meters Requested
4,2,Cumulative Days of Simulation[],Month[]  ! When Monthly Meters Requested
5,1,Cumulative Days of Simulation[] ! When Run Period Meters Requested
6,1,Calendar Year of Simulation[] ! When Annual Meters Requested
135,1,Electricity:Facility [J] !Hourly
3420,1,ElectricityNet:Facility [J] !Hourly
3738,1,NaturalGas:Facility [J] !Hourly
End of Data Dictionary
1,RUNPERIOD 1,  35.04,-106.62,  -7.00,1619.00
2,1, 1, 1, 0, 1, 0.00,60.00,Holiday
135,46359074.93593144
3420,46359074.93593143
3738,6791184.0
2,1, 1, 1, 0, 2, 0.00,60.00,Holiday
135,46359235.70955593
3420,46359235.709555924
3738,6791184.0
2,1, 1, 1, 0, 3, 0.00,60.00,Holiday
135,46359235.70955593
3420,46359235.709555924
3738,6791184.0
2,1, 1, 1, 0, 4, 0.00,60.00,Holiday
135,46359235.70955593
3420,46359235.709555924
3738,6791184.0
2,1, 1, 1, 0, 5, 0.00,60.00,Holiday
135,46359235.70955593
3420,46359235.709555924
3738,6791184.0
2,1, 1, 1, 0, 6, 0.00,60.00,Holiday
135,46359235.70955593
3420,46359235.709555924
3738,6791184.0
2,1, 1, 1, 0, 7, 0.00,60.00,Holiday
135,66032185.73006148
3420,66032185.73006148
3738,6791184.0
2,1, 1, 1, 0, 8, 0.00,60.00,Holiday
135,50074623.774579875
3420,50074623.774579875
3738,6791184.0
2,1, 1, 1, 0, 9, 0.00,60.00,Holiday
135,46351708.9331394
3420,46351708.9331394
3738,6791184.0
2,1, 1, 1, 0,10, 0.00,60.00,Holiday
135,46288813.17904917
3420,46288813.179049164
3738,6791184.0
2,1, 1, 1, 0,11, 0.00,60.00,Holiday
135,50009342.363199614
3420,50009342.363199614
3738,6791184.0
2,1, 1, 1, 0,12, 0.00,60.00,Holiday
135,53617732.55272024
3420,53617732.55272024
3738,6791184.0
2,1, 1, 1, 0,13, 0.00,60.00,Holiday
135,53634290.22678877
3420,53634290.22678876
3738,6791184.0
2,1, 1, 1, 0,14, 0.00,60.00,Holiday
135,58165555.4574862
3420,58165555.45748622
3738,6791184.0
2,1, 1, 1, 0,15, 0.00,60.00,Holiday
135,62026144.28259239
3420,62026144.28259239
3738,6791184.0
2,1, 1, 1, 0,16, 0.00,60.00,Holiday
135,62605261.924326405
3420,62605261.924326405
3738,6791184.0
2,1, 1, 1, 0,17, 0.00,60.00,Holiday
135,50224406.74534619
3420,50224406.74534619
3738,6791184.0
2,1, 1, 1, 0,18, 0.00,60.00,Holiday
135,67534969.93162571
3420,67534969.93162571
3738,6791184.0
2,1, 1, 1, 0,19, 0.00,60.00,Holiday
135,57105773.81922845
3420,57105773.81922844
3738,6791184.0
2,1, 1, 1, 0,20, 0.00,60.00,Holiday
135,48904615.70955593
3420,48904615.70955593
3738,6791184.0
2,1, 1, 1, 0,21, 0.00,60.00,Holiday
135,48904615.70955593
3420,48904615.70955593
3738,6791184.0
2,1, 1, 1, 0,22, 0.00,60.00,Holiday
135,48904615.70955593
3420,48904615.70955593
3738,6791184.0
2,1, 1, 1, 0,23, 0.00,60.00,Holiday
135,48904615.70955593
3420,48904615.70955593
3738,6791184.0
2,1, 1, 1, 0,24, 0.00,60.00,Holiday
135,48904615.70955593
3420,48904615.70955593
3738,6791184.0
2,2, 1, 2, 0, 1, 0.00,60.00,Monday
135,57609860.1137362
3420,57609860.1137362
3738,6791184.0
2,2, 1, 2, 0, 2, 0.00,60.00,Monday
135,57609860.1137362
3420,57609860.1137362
3738,6791184.0
2,2, 1, 2, 0, 3, 0.00,60.00,Monday
135,57609860.1137362
3420,57609860.1137362
3738,6791184.0
2,2, 1, 2, 0, 4, 0.00,60.00,Monday
135,57609860.1137362
3420,57609860.1137362
3738,6791184.0
2,2, 1, 2, 0, 5, 0.00,60.00,Monday
135,57609860.1137362
3420,57609860.1137362
3738,6791184.0
2,2, 1, 2, 0, 6, 0.00,60.00,Monday
135,57609860.1137362
3420,57609860.1137362
3738,6791184.0
2,2, 1, 2, 0, 7, 0.00,60.00,Monday
135,137296304.18115827
3420,137296304.18115827
3738,6791184.0
2,2, 1, 2, 0, 8, 0.00,60.00,Monday
135,228091710.0508986
3420,228091710.0508986
3738,147577462.2909266
2,2, 1, 2, 0, 9, 0.00,60.00,Monday
135,310928566.17060184
3420,310928566.17060184
3738,92519461.25435951
2,2, 1, 2, 0,10, 0.00,60.00,Monday
135,270881865.80048376
3420,270881865.8004837
3738,64104549.62432517
2,2, 1, 2, 0,11, 0.00,60.00,Monday
135,266825978.4651965
3420,266825978.46519646
3738,26002213.802575894
2,2, 1, 2, 0,12, 0.00,60.00,Monday
135,286238561.40794075
3420,286238561.40794075
3738,20876803.489152778
2,2, 1, 2, 0,13, 0.00,60.00,Monday
135,288356518.2716734
3420,288356518.2716734
3738,31334359.881758783
2,2, 1, 2, 0,14, 0.00,60.00,Monday
135,302975525.7747885
3420,302975525.7747885
3738,26165959.05339483
2,2, 1, 2, 0,15, 0.00,60.00,Monday
135,294972021.31000483
3420,294972021.3100048
3738,16663111.546087924
2,2, 1, 2, 0,16, 0.00,60.00,Monday
135,299410344.29420304
3420,299410344.29420304
3738,19076358.658423744
2,2, 1, 2, 0,17, 0.00,60.00,Monday
135,298389053.9474881
3420,298389053.94748807
3738,20696594.044879485
2,2, 1, 2, 0,18, 0.00,60.00,Monday
135,237624719.45918894
3420,237624719.45918894
3738,24658594.589504886
2,2, 1, 2, 0,19, 0.00,60.00,Monday
135,131458533.53394982
3420,131458533.5339498
3738,57891981.091293484
2,2, 1, 2, 0,20, 0.00,60.00,Monday
135,116433380.00818448
3420,116433380.00818448
3738,72469446.82990465
2,2, 1, 2, 0,21, 0.00,60.00,Monday
135,107904137.86016025
3420,107904137.86016026
3738,84419336.25488532
2,2, 1, 2, 0,22, 0.00,60.00,Monday
135,105912372.76109348
3420,105912372.7610935
3738,86039928.28257765
2,2, 1, 2, 0,23, 0.00,60.00,Monday
135,77772390.65670998
3420,77772390.65670998
3738,6791184.0
2,2, 1, 2, 0,24, 0.00,60.00,Monday
135,72442274.24247962
3420,72442274.24247962
3738,6791184.0
2,3, 1, 3, 0, 1, 0.00,60.00,Tuesday
135,57996196.7332391
3420,57996196.7332391
3738,6791184.0
2,3, 1, 3, 0, 2, 0.00,60.00,Tuesday
135,57609860.1137362
3420,57609860.1137362
3738,6791184.0
2,3, 1, 3, 0, 3, 0.00,60.00,Tuesday
135,57609860.1137362
3420,57609860.1137362
3738,6791184.0
2,3, 1, 3, 0, 4, 0.00,60.00,Tuesday
135,57609860.1137362
3420,57609860.1137362
3738,6791184.0
2,3, 1, 3, 0, 5, 0.00,60.00,Tuesday
135,57609860.1137362
3420,57609860.1137362
3738,6791184.0
2,3, 1, 3, 0, 6, 0.00,60.00,Tuesday
135,57609860.1137362
3420,57609860.1137362
3738,6791184.0
2,3, 1, 3, 0, 7, 0.00,60.00,Tuesday
135,112102812.71491654
3420,112102812.71491656
3738,6791184.0
2,3, 1, 3, 0, 8, 0.00,60.00,Tuesday
135,192408370.01605332
3420,192408370.0160533
3738,131270974.34457883
2,3, 1, 3, 0, 9, 0.00,60.00,Tuesday
135,311377468.3005356
3420,311377468.30053556
3738,77011765.8614414
2,3, 1, 3, 0,10, 0.00,60.00,Tuesday
135,275991645.6933976
3420,275991645.6933976
3738,37032265.1894799
2,3, 1, 3, 0,11, 0.00,60.00,Tuesday
135,275027993.38438785
3420,275027993.38438785
3738,12356874.77290462
2,3, 1, 3, 0,12, 0.00,60.00,Tuesday
135,293027824.6580732
3420,293027824.6580732
3738,23129488.975600578
2,3, 1, 3, 0,13, 0.00,60.00,Tuesday
135,294632280.35879445
3420,294632280.3587944
3738,31312393.36103994
2,3, 1, 3, 0,14, 0.00,60.00,Tuesday
135,311631511.72635615
3420,311631511.72635615
3738,26179763.885574874
2,3, 1, 3, 0,15, 0.00,60.00,Tuesday
135,297469091.1916596
3420,297469091.1916596
3738,20133738.27406303
2,3, 1, 3, 0,16, 0.00,60.00,Tuesday
135,301048099.2336246
3420,301048099.2336245
3738,15641933.428970817
2,3, 1, 3, 0,17, 0.00,60.00,Tuesday
135,304381337.59458923
3420,304381337.5945892
3738,21131219.676558174
2,3, 1, 3, 0,18, 0.00,60.00,Tuesday
135,241555527.0717467
3420,241555527.07174665
3738,18150591.1484727
2,3, 1, 3, 0,19, 0.00,60.00,Tuesday
135,131866343.2953921
3420,131866343.2953921
3738,35254282.540325396
2,3, 1, 3, 0,20, 0.00,60.00,Tuesday
135,113569604.38930234
3420,113569604.38930234
3738,55618240.98964385
2,3, 1, 3, 0,21, 0.00,60.00,Tuesday
135,103004750.63109705
3420,103004750.63109705
3738,64520228.30643645
2,3, 1, 3, 0,22, 0.00,60.00,Tuesday
135,100314428.85157591
3420,100314428.85157594
3738,93974720.59014836
2,3, 1, 3, 0,23, 0.00,60.00,Tuesday
135,77772390.65670998
3420,77772390.65670998
3738,6791184.0
2,3, 1, 3, 0,24, 0.00,60.00,Tuesday
135,72442274.24247962
3420,72442274.24247962
3738,6791184.0
2,4, 1, 4, 0, 1, 0.00,60.00,Wednesday
135,57996196.7332391
3420,57996196.7332391
3738,6791184.0
2,4, 1, 4, 0, 2, 0.00,60.00,Wednesday
135,57609860.1137362
3420,57609860.1137362
3738,6791184.0
2,4, 1, 4, 0, 3, 0.00,60.00,Wednesday
135,57609860.1137362
3420,57609860.1137362
3738,6791184.0
2,4, 1, 4, 0, 4, 0.00,60.00,Wednesday
135,57609860.1137362
3420,57609860.1137362
3738,6791184.0
2,4, 1, 4, 0, 5, 0.00,60.00,Wednesday
135,57609860.1137362
3420,57609860.1137362
3738,6791184.0
2,4, 1, 4, 0, 6, 0.00,60.00,Wednesday
135,57609860.1137362
3420,57609860.1137362
3738,6791184.0
2,4, 1, 4, 0, 7, 0.00,60.00,Wednesday
135,107774072.52574906
3420,107774072.52574907
3738,6791184.0
2,4, 1, 4, 0, 8, 0.00,60.00,Wednesday
135,190977085.51973185
3420,190977085.51973185
3738,152549075.17350966
2,4, 1, 4, 0, 9, 0.00,60.00,Wednesday
135,309442795.73769474
3420,309442795.7376947
3738,90061261.93808414
2,4, 1, 4, 0,10, 0.00,60.00,Wednesday
135,270429451.7583626
3420,270429451.7583626
3738,61809308.47868821
2,4, 1, 4, 0,11, 0.00,60.00,Wednesday
135,264628704.1230281
3420,264628704.1230281
3738,42705920.408390485
2,4, 1, 4, 0,12, 0.00,60.00,Wednesday
135,278718611.7130605
3420,278718611.7130605
3738,27237330.092575423
2,4, 1, 4, 0,13, 0.00,60.00,Wednesday
135,284511525.7473638
3420,284511525.7473638
3738,31351205.050687008
2,4, 1, 4, 0,14, 0.00,60.00,Wednesday
135,289894129.4150424
3420,289894129.4150424
3738,26189702.813008703
2,4, 1, 4, 0,15, 0.00,60.00,Wednesday
135,275182970.10820526
3420,275182970.1082052
3738,20162358.474987995
2,4, 1, 4, 0,16, 0.00,60.00,Wednesday
135,274853282.9723808
3420,274853282.97238076
3738,15652705.375646915
2,4, 1, 4, 0,17, 0.00,60.00,Wednesday
135,294556686.5135559
3420,294556686.5135559
3738,25318578.899761163
2,4, 1, 4, 0,18, 0.00,60.00,Wednesday
135,251267316.60602063
3420,251267316.60602063
3738,20631977.949197866
2,4, 1, 4, 0,19, 0.00,60.00,Wednesday
135,131888589.07372302
3420,131888589.07372302
3738,37714540.541103825
2,4, 1, 4, 0,20, 0.00,60.00,Wednesday
135,113569604.38930234
3420,113569604.38930234
3738,52554108.24589509
2,4, 1, 4, 0,21, 0.00,60.00,Wednesday
135,102913361.90140839
3420,102913361.90140839
3738,65833880.561717674
2,4, 1, 4, 0,22, 0.00,60.00,Wednesday
135,99099294.84500085
3420,99099294.84500086
3738,77140171.07041092
2,4, 1, 4, 0,23, 0.00,60.00,Wednesday
135,77772390.65670998
3420,77772390.65670998
3738,6791184.0
2,4, 1, 4, 0,24, 0.00,60.00,Wednesday
135,72442274.24247962
3420,72442274.24247962
3738,6791184.0
2,5, 1, 5, 0, 1, 0.00,60.00,Thursday
135,57996196.7332391
3420,57996196.7332391
3738,6791184.0
2,5, 1, 5, 0, 2, 0.00,60.00,Thursday
135,57609860.1137362
3420,57609860.1137362
3738,6791184.0
2,5, 1, 5, 0, 3, 0.00,60.00,Thursday
135,57609860.1137362
3420,57609860.1137362
3738,6791184.0
2,5, 1, 5, 0, 4, 0.00,60.00,Thursday
135,57609860.1137362
3420,57609860.1137362
3738,6791184.0
2,5, 1, 5, 0, 5, 0.00,60.00,Thursday
135,57609860.1137362
3420,57609860.1137362
3738,6791184.0
2,5, 1, 5, 0, 6, 0.00,60.00,Thursday
135,57609860.1137362
3420,57609860.1137362
3738,6791184.0
2,5, 1, 5, 0, 7, 0.00,60.00,Thursday
135,100664134.13277073
3420,100664134.13277075
3738,6791184.0
2,5, 1, 5, 0, 8, 0.00,60.00,Thursday
135,179218138.09158877
3420,179218138.09158877
3738,123385563.81631427
2,5, 1, 5, 0, 9, 0.00,60.00,Thursday
135,310140494.9575479
3420,310140494.9575479
3738,66366961.95607806
2,5, 1, 5, 0,10, 0.00,60.00,Thursday
135,278302077.47215706
3420,278302077.47215706
3738,21145617.81198257
2,5, 1, 5, 0,11, 0.00,60.00,Thursday
135,277656547.2238385
3420,277656547.22383845
3738,11332705.54928314
2,5, 1, 5, 0,12, 0.00,60.00,Thursday
135,290287840.52319187
3420,290287840.5231918
3738,20890782.0365476
2,5, 1, 5, 0,13, 0.00,60.00,Thursday
135,290349019.8888911
3420,290349019.8888911
3738,31320858.562127728
2,5, 1, 5, 0,14, 0.00,60.00,Thursday
135,311941214.5494007
3420,311941214.54940075
3738,26189007.473221518
2,5, 1, 5, 0,15, 0.00,60.00,Thursday
135,305260067.94258845
3420,305260067.9425884
3738,20203910.290040478
2,5, 1, 5, 0,16, 0.00,60.00,Thursday
135,309027881.6614876
3420,309027881.6614876
3738,15641467.481528439
2,5, 1, 5, 0,17, 0.00,60.00,Thursday
135,312443656.95504934
3420,312443656.9550493
3738,25322054.82401494
2,5, 1, 5, 0,18, 0.00,60.00,Thursday
135,244621806.36539933
3420,244621806.36539933
3738,11106437.11808634
2,5, 1, 5, 0,19, 0.00,60.00,Thursday
135,132384235.43671827
3420,132384235.43671827
3738,18515542.883175965
2,5, 1, 5, 0,20, 0.00,60.00,Thursday
135,113569604.38930234
3420,113569604.38930234
3738,38182825.55833641
2,5, 1, 5, 0,21, 0.00,60.00,Thursday
135,102910895.06207252
3420,102910895.06207252
3738,50500896.487481296
2,5, 1, 5, 0,22, 0.00,60.00,Thursday
135,98331323.74705626
3420,98331323.74705628
3738,64229737.95698746
2,5, 1, 5, 0,23, 0.00,60.00,Thursday
135,77772390.65670998
3420,77772390.65670998
3738,6791184.0
2,5, 1, 5, 0,24, 0.00,60.00,Thursday
135,72442274.24247962
3420,72442274.24247962
3738,6791184.0
2,6, 1, 6, 0, 1, 0.00,60.00,Friday
135,57996196.7332391
3420,57996196.7332391
3738,6791184.0
2,6, 1, 6, 0, 2, 0.00,60.00,Friday
135,57609860.1137362
3420,57609860.1137362
3738,6791184.0
2,6, 1, 6, 0, 3, 0.00,60.00,Friday
135,57609860.1137362
3420,57609860.1137362
3738,6791184.0
2,6, 1, 6, 0, 4, 0.00,60.00,Friday
135,57609860.1137362
3420,57609860.1137362
3738,6791184.0
2,6, 1, 6, 0, 5, 0.00,60.00,Friday
135,57609860.1137362
3420,57609860.1137362
3738,6791184.0
2,6, 1, 6, 0, 6, 0.00,60.00,Friday
135,57609860.1137362
3420,57609860.1137362
3738,6791184.0
2,6, 1, 6, 0, 7, 0.00,60.00,Friday
135,104021937.75672011
3420,104021937.75672011
3738,6791184.0
2,6, 1, 6, 0, 8, 0.00,60.00,Friday
135,189936504.3442954
3420,189936504.34429544
3738,122004297.61300457
2,6, 1, 6, 0, 9, 0.00,60.00,Friday
135,313095773.996989
3420,313095773.99698895
3738,84965214.18997851
2,6, 1, 6, 0,10, 0.00,60.00,Friday
135,270142893.3477875
3420,270142893.34778744
3738,76821908.64860399
2,6, 1, 6, 0,11, 0.00,60.00,Friday
135,262778198.39893132
3420,262778198.39893126
3738,65766238.036781654
2,6, 1, 6, 0,12, 0.00,60.00,Friday
135,280978099.8127923
3420,280978099.8127923
3738,42817340.92863076
2,6, 1, 6, 0,13, 0.00,60.00,Friday
135,290762993.4284011
3420,290762993.42840105
3738,27934092.280391134
2,6, 1, 6, 0,14, 0.00,60.00,Friday
135,302857120.3244846
3420,302857120.3244846
3738,27524742.49102838
2,6, 1, 6, 0,15, 0.00,60.00,Friday
135,288986243.8393586
3420,288986243.83935857
3738,18945590.50462
2,6, 1, 6, 0,16, 0.00,60.00,Friday
135,291585424.47129095
3420,291585424.4712908
3738,15649007.87667057
2,6, 1, 6, 0,17, 0.00,60.00,Friday
135,303430136.7931661
3420,303430136.7931661
3738,25324744.863053482
2,6, 1, 6, 0,18, 0.00,60.00,Friday
135,251519601.5244613
3420,251519601.52446127
3738,44796210.49665939
2,6, 1, 6, 0,19, 0.00,60.00,Friday
135,131382129.92829464
3420,131382129.92829466
3738,66291172.177451454
2,6, 1, 6, 0,20, 0.00,60.00,Friday
135,113569604.38930234
3420,113569604.38930234
3738,68982709.57709457
2,6, 1, 6, 0,21, 0.00,60.00,Friday
135,103908791.62692426
3420,103908791.62692426
3738,85647693.53892112
2,6, 1, 6, 0,22, 0.00,60.00,Friday
135,100670573.52676052
3420,100670573.52676055
3738,83931553.34953211
2,6, 1, 6, 0,23, 0.00,60.00,Friday
135,77772390.65670998
3420,77772390.65670998
3738,6791184.0
2,6, 1, 6, 0,24, 0.00,60.00,Friday
135,72442274.24247962
3420,72442274.24247962
3738,6791184.0
2,7, 1, 7, 0, 1, 0.00,60.00,Saturday
135,46745513.81922844
3420,46745513.81922843
3738,6791184.0
2,7, 1, 7, 0, 2, 0.00,60.00,Saturday
135,46359235.70955593
3420,46359235.709555924
3738,6791184.0
2,7, 1, 7, 0, 3, 0.00,60.00,Saturday
135,46359235.70955593
3420,46359235.709555924
3738,6791184.0
2,7, 1, 7, 0, 4, 0.00,60.00,Saturday
135,46359235.70955593
3420,46359235.709555924
3738,6791184.0
2,7, 1, 7, 0, 5, 0.00,60.00,Saturday
135,46359235.70955593
3420,46359235.709555924
3738,6791184.0
2,7, 1, 7, 0, 6, 0.00,60.00,Saturday
135,46359235.70955593
3420,46359235.709555924
3738,6791184.0
2,7, 1, 7, 0, 7, 0.00,60.00,Saturday
135,108995144.42375785
3420,108995144.42375785
3738,6791184.0
2,7, 1, 7, 0, 8, 0.00,60.00,Saturday
135,135741714.27307677
3420,135741714.27307677
3738,111186952.20754626
2,7, 1, 7, 0, 9, 0.00,60.00,Saturday
135,131655745.53075765
3420,131655745.53075765
3738,92434624.02709582
2,7, 1, 7, 0,10, 0.00,60.00,Saturday
135,134355015.33943486
3420,134355015.33943486
3738,77687696.73104097
2,7, 1, 7, 0,11, 0.00,60.00,Saturday
135,127572139.6133849
3420,127572139.61338489
3738,48655301.49266427
2,7, 1, 7, 0,12, 0.00,60.00,Saturday
135,136374890.22021988
3420,136374890.22021988
3738,14391031.663789721
2,7, 1, 7, 0,13, 0.00,60.00,Saturday
135,96439292.3144247
3420,96439292.31442468
3738,6791184.0
2,7, 1, 7, 0,14, 0.00,60.00,Saturday
135,86595261.10377194
3420,86595261.10377195
3738,6791184.0
2,7, 1, 7, 0,15, 0.00,60.00,Saturday
135,80777988.06353001
3420,80777988.06353001
3738,6791184.0
2,7, 1, 7, 0,16, 0.00,60.00,Saturday
135,76233398.28453368
3420,76233398.28453368
3738,7166636.678776845
2,7, 1, 7, 0,17, 0.00,60.00,Saturday
135,78349075.03257984
3420,78349075.03257984
3738,11942990.49071707
2,7, 1, 7, 0,18, 0.00,60.00,Saturday
135,83077160.33306564
3420,83077160.33306564
3738,24856758.059418574
2,7, 1, 7, 0,19, 0.00,60.00,Saturday
135,66276703.53612528
3420,66276703.53612528
3738,6791184.0
2,7, 1, 7, 0,20, 0.00,60.00,Saturday
135,49290893.81922844
3420,49290893.81922844
3738,6791184.0
2,7, 1, 7, 0,21, 0.00,60.00,Saturday
135,48904615.70955593
3420,48904615.70955593
3738,6791184.0
2,7, 1, 7, 0,22, 0.00,60.00,Saturday
135,48904615.70955593
3420,48904615.70955593
3738,6791184.0
2,7, 1, 7, 0,23, 0.00,60.00,Saturday
135,48904615.70955593
3420,48904615.70955593
3738,6791184.0
2,7, 1, 7, 0,24, 0.00,60.00,Saturday
135,48904615.70955593
3420,48904615.70955593
3738,6791184.0
2,8, 1, 8, 0, 1, 0.00,60.00,Sunday
135,46359235.70955593
3420,46359235.709555924
3738,6791184.0
2,8, 1, 8, 0, 2, 0.00,60.00,Sunday
135,46359235.70955593
3420,46359235.709555924
3738,6791184.0
2,8, 1, 8, 0, 3, 0.00,60.00,Sunday
135,46359235.70955593
3420,46359235.709555924
3738,6791184.0
2,8, 1, 8, 0, 4, 0.00,60.00,Sunday
135,46359235.70955593
3420,46359235.709555924
3738,6791184.0
2,8, 1, 8, 0, 5, 0.00,60.00,Sunday
135,46359235.70955593
3420,46359235.709555924
3738,6791184.0
2,8, 1, 8, 0, 6, 0.00,60.00,Sunday
135,46359235.70955593
3420,46359235.709555924
3738,6791184.0
2,8, 1, 8, 0, 7, 0.00,60.00,Sunday
135,66032185.73006148
3420,66032185.73006148
3738,6791184.0
2,8, 1, 8, 0, 8, 0.00,60.00,Sunday
135,53323580.330645084
3420,53323580.330645084
3738,6791184.0
2,8, 1, 8, 0, 9, 0.00,60.00,Sunday
135,46344166.24829911
3420,46344166.24829911
3738,6791184.0
2,8, 1, 8, 0,10, 0.00,60.00,Sunday
135,46288812.51597283
3420,46288812.51597283
3738,6791184.0
2,8, 1, 8, 0,11, 0.00,60.00,Sunday
135,47722627.25860573
3420,47722627.258605726
3738,6791184.0
2,8, 1, 8, 0,12, 0.00,60.00,Sunday
135,53693527.93730194
3420,53693527.93730195
3738,6791184.0
2,8, 1, 8, 0,13, 0.00,60.00,Sunday
135,56401309.18127547
3420,56401309.18127547
3738,6791184.0
2,8, 1, 8, 0,14, 0.00,60.00,Sunday
135,63490377.84222689
3420,63490377.84222689
3738,6791184.0
2,8, 1, 8, 0,15, 0.00,60.00,Sunday
135,63298657.48345274
3420,63298657.483452745
3738,6791184.0
2,8, 1, 8, 0,16, 0.00,60.00,Sunday
135,65355457.97945711
3420,65355457.97945711
3738,6791184.0
2,8, 1, 8, 0,17, 0.00,60.00,Sunday
135,58378535.71184524
3420,58378535.71184525
3738,6791184.0
2,8, 1, 8, 0,18, 0.00,60.00,Sunday
135,66276671.30593526
3420,66276671.30593526
3738,6791184.0
2,8, 1, 8, 0,19, 0.00,60.00,Sunday
135,57105773.81922845
3420,57105773.81922844
3738,6791184.0
2,8, 1, 8, 0,20, 0.00,60.00,Sunday
135,48904615.70955593
3420,48904615.70955593
3738,6791184.0
2,8, 1, 8, 0,21, 0.00,60.00,Sunday
135,48904615.70955593
3420,48904615.70955593
3738,6791184.0
2,8, 1, 8, 0,22, 0.00,60.00,Sunday
135,48904615.70955593
3420,48904615.70955593
3738,6791184.0
2,8, 1, 8, 0,23, 0.00,60.00,Sunday
135,48904615.70955593
3420,48904615.70955593
3738,6791184.0
2,8, 1, 8, 0,24, 0.00,60.00,Sunday
135,48904615.70955593
3420,48904615.70955593
3738,6791184.0
2,9, 1, 9, 0, 1, 0.00,60.00,Monday
135,57609860.1137362
3420,57609860.1137362
3738,6791184.0
2,9, 1, 9, 0, 2, 0.00,60.00,Monday
135,57609860.1137362
3420,57609860.1137362
3738,6791184.0
2,9, 1, 9, 0, 3, 0.00,60.00,Monday
135,57609860.1137362
3420,57609860.1137362
3738,6791184.0
2,9, 1, 9, 0, 4, 0.00,60.00,Monday
135,57609860.1137362
3420,57609860.1137362
3738,6791184.0
2,9, 1, 9, 0, 5, 0.00,60.00,Monday
135,57609860.1137362
3420,57609860.1137362
3738,6791184.0
2,9, 1, 9, 0, 6, 0.00,60.00,Monday
135,57609860.1137362
3420,57609860.1137362
3738,6791184.0
2,9, 1, 9, 0, 7, 0.00,60.00,Monday
135,114627136.83738692
3420,114627136.83738692
3738,6791184.0
2,9, 1, 9, 0, 8, 0.00,60.00,Monday
135,197199982.0509139
3420,197199982.0509139
3738,105644169.91730675
2,9, 1, 9, 0, 9, 0.00,60.00,Monday
135,314065420.6550706
3420,314065420.65507066
3738,62455748.6638853
2,9, 1, 9, 0,10, 0.00,60.00,Monday
135,278329761.7340447
3420,278329761.7340447
3738,30544638.562955305
2,9, 1, 9, 0,11, 0.00,60.00,Monday
135,276776731.5505247
3420,276776731.5505247
3738,8267633.588508362
2,9, 1, 9, 0,12, 0.00,60.00,Monday
135,289593286.0361526
3420,289593286.0361526
3738,20903860.250842627
2,9, 1, 9, 0,13, 0.00,60.00,Monday
135,290826763.7288364
3420,290826763.7288364
3738,31355574.97571501
2,9, 1, 9, 0,14, 0.00,60.00,Monday
135,311626204.6562366
3420,311626204.6562366
3738,26214345.85356232
2,9, 1, 9, 0,15, 0.00,60.00,Monday
135,307454086.5111561
3420,307454086.511156
3738,20131555.792018477
2,9, 1, 9, 0,16, 0.00,60.00,Monday
135,316466855.8259222
3420,316466855.82592213
3738,15659356.987560939
2,9, 1, 9, 0,17, 0.00,60.00,Monday
135,324099209.1020283
3420,324099209.1020283
3738,25336257.877944596
2,9, 1, 9, 0,18, 0.00,60.00,Monday
135,243709861.79079062
3420,243709861.79079062
3738,11090419.716291549
2,9, 1, 9, 0,19, 0.00,60.00,Monday
135,132150672.89595592
3420,132150672.89595592
3738,15705390.388400808
2,9, 1, 9, 0,20, 0.00,60.00,Monday
135,113569604.38930234
3420,113569604.38930234
3738,20165085.31231205
2,9, 1, 9, 0,21, 0.00,60.00,Monday
135,102910895.06207252
3420,102910895.06207252
3738,12125703.605326446
2,9, 1, 9, 0,22, 0.00,60.00,Monday
135,98376649.52469549
3420,98376649.52469552
3738,16438104.50252857
2,9, 1, 9, 0,23, 0.00,60.00,Monday
135,77772390.65670998
3420,77772390.65670998
3738,6791184.0
2,9, 1, 9, 0,24, 0.00,60.00,Monday
135,72442274.24247962
3420,72442274.24247962
3738,6791184.0
2,10, 1,10, 0, 1, 0.00,60.00,Tuesday
135,57996196.7332391
3420,57996196.7332391
3738,6791184.0
2,10, 1,10, 0, 2, 0.00,60.00,Tuesday
135,57609860.1137362
3420,57609860.1137362
3738,6791184.0
2,10, 1,10, 0, 3, 0.00,60.00,Tuesday
135,57609860.1137362
3420,57609860.1137362
3738,6791184.0
2,10, 1,10, 0, 4, 0.00,60.00,Tuesday
135,57609860.1137362
3420,57609860.1137362
3738,6791184.0
2,10, 1,10, 0, 5, 0.00,60.00,Tuesday
135,57609860.1137362
3420,57609860.1137362
3738,6791184.0
2,10, 1,10, 0, 6, 0.00,60.00,Tuesday
135,57609860.1137362
3420,57609860.1137362
3738,6791184.0
2,10, 1,10, 0, 7, 0.00,60.00,Tuesday
135,105066989.06729306
3420,105066989.06729311
3738,6791184.0
2,10, 1,10, 0, 8, 0.00,60.00,Tuesday
135,182425592.3574556
3420,182425592.35745564
3738,133092435.42944312
2,10, 1,10, 0, 9, 0.00,60.00,Tuesday
135,308245017.44706136
3420,308245017.4470614
3738,86914778.58765817
2,10, 1,10, 0,10, 0.00,60.00,Tuesday
135,271961187.941332
3420,271961187.9413319
3738,65010247.2225938
2,10, 1,10, 0,11, 0.00,60.00,Tuesday
135,264422819.66610944
3420,264422819.66610938
3738,55367093.75634084
2,10, 1,10, 0,12, 0.00,60.00,Tuesday
135,274040139.8277389
3420,274040139.8277389
3738,66229344.608037114
2,10, 1,10, 0,13, 0.00,60.00,Tuesday
135,288866827.41901714
3420,288866827.4190171
3738,48516977.887451895
2,10, 1,10, 0,14, 0.00,60.00,Tuesday
135,291114784.0295403
3420,291114784.0295403
3738,32163883.104432404
2,10, 1,10, 0,15, 0.00,60.00,Tuesday
135,283409292.5231872
3420,283409292.52318716
3738,16168976.026770482
2,10, 1,10, 0,16, 0.00,60.00,Tuesday
135,285095929.1174384
3420,285095929.1174383
3738,17340694.832446493
2,10, 1,10, 0,17, 0.00,60.00,Tuesday
135,296990205.8780783
3420,296990205.8780782
3738,23578455.674542584
2,10, 1,10, 0,18, 0.00,60.00,Tuesday
135,250539828.9952308
3420,250539828.99523073
3738,34876932.07952603
2,10, 1,10, 0,19, 0.00,60.00,Tuesday
135,131037423.02509286
3420,131037423.02509286
3738,73761116.10168609
2,10, 1,10, 0,20, 0.00,60.00,Tuesday
135,113569604.38930234
3420,113569604.38930234
3738,79114845.28535491
2,10, 1,10, 0,21, 0.00,60.00,Tuesday
135,103275339.51136547
3420,103275339.51136547
3738,89680694.04195073
2,10, 1,10, 0,22, 0.00,60.00,Tuesday
135,100742128.26880123
3420,100742128.26880124
3738,103688413.10781442
2,10, 1,10, 0,23, 0.00,60.00,Tuesday
135,77772390.65670998
3420,77772390.65670998
3738,6791184.0
2,10, 1,10, 0,24, 0.00,60.00,Tuesday
135,72442274.24247962
3420,72442274.24247962
3738,6791184.0
2,11, 1,11, 0, 1, 0.00,60.00,Wednesday
135,57996196.7332391
3420,57996196.7332391
3738,6791184.0
2,11, 1,11, 0, 2, 0.00,60.00,Wednesday
135,57609860.1137362
3420,57609860.1137362
3738,6791184.0
2,11, 1,11, 0, 3, 0.00,60.00,Wednesday
135,57609860.1137362
3420,57609860.1137362
3738,6791184.0
2,11, 1,11, 0, 4, 0.00,60.00,Wednesday
135,57609860.1137362
3420,57609860.1137362
3738,6791184.0
2,11, 1,11, 0, 5, 0.00,60.00,Wednesday
135,57609860.1137362
3420,57609860.1137362
3738,6791184.0
2,11, 1,11, 0, 6, 0.00,60.00,Wednesday
135,57609860.1137362
3420,57609860.1137362
3738,6791184.0
2,11, 1,11, 0, 7, 0.00,60.00,Wednesday
135,106462686.18854842
3420,106462686.18854842
3738,6791184.0
2,11, 1,11, 0, 8, 0.00,60.00,Wednesday
135,184542827.19428363
3420,184542827.19428357
3738,91910093.32210593
2,11, 1,11, 0, 9, 0.00,60.00,Wednesday
135,303905083.4019178
3420,303905083.4019178
3738,63716315.469483614
2,11, 1,11, 0,10, 0.00,60.00,Wednesday
135,267723361.9965361
3420,267723361.9965361
3738,48923610.71249123
2,11, 1,11, 0,11, 0.00,60.00,Wednesday
135,263388832.14760104
3420,263388832.14760104
3738,20690931.946643714
2,11, 1,11, 0,12, 0.00,60.00,Wednesday
135,274461999.3852588
3420,274461999.38525873
3738,30318101.211645838
2,11, 1,11, 0,13, 0.00,60.00,Wednesday
135,275663849.16021657
3420,275663849.16021657
3738,43218745.86291206
2,11, 1,11, 0,14, 0.00,60.00,Wednesday
135,274337757.09670657
3420,274337757.09670657
3738,31194655.307168968
2,11, 1,11, 0,15, 0.00,60.00,Wednesday
135,260187301.7680902
3420,260187301.76809016
3738,23239080.61500693
2,11, 1,11, 0,16, 0.00,60.00,Wednesday
135,260547605.71648672
3420,260547605.71648672
3738,29121298.4045588
2,11, 1,11, 0,17, 0.00,60.00,Wednesday
135,277610942.6466572
3420,277610942.6466572
3738,58121171.042987525
2,11, 1,11, 0,18, 0.00,60.00,Wednesday
135,242154027.58797938
3420,242154027.58797935
3738,62824170.842509344
2,11, 1,11, 0,19, 0.00,60.00,Wednesday
135,131800279.15885833
3420,131800279.15885833
3738,91885339.24493657
2,11, 1,11, 0,20, 0.00,60.00,Wednesday
135,113761253.4639035
3420,113761253.4639035
3738,101191809.80714422
2,11, 1,11, 0,21, 0.00,60.00,Wednesday
135,104840314.74104375
3420,104840314.74104376
3738,100775629.98322271
2,11, 1,11, 0,22, 0.00,60.00,Wednesday
135,102441748.88772997
3420,102441748.88772999
3738,111473746.5611268
2,11, 1,11, 0,23, 0.00,60.00,Wednesday
135,77772390.65670998
3420,77772390.65670998
3738,6791184.0
2,11, 1,11, 0,24, 0.00,60.00,Wednesday
135,72442274.24247962
3420,72442274.24247962
3738,6791184.0
2,12, 1,12, 0, 1, 0.00,60.00,Thursday
135,57996196.7332391
3420,57996196.7332391
3738,6791184.0
2,12, 1,12, 0, 2, 0.00,60.00,Thursday
135,57609860.1137362
3420,57609860.1137362
3738,6791184.0
2,12, 1,12, 0, 3, 0.00,60.00,Thursday
135,57609860.1137362
3420,57609860.1137362
3738,6791184.0
2,12, 1,12, 0, 4, 0.00,60.00,Thursday
135,57609860.1137362
3420,57609860.1137362
3738,6791184.0
2,12, 1,12, 0, 5, 0.00,60.00,Thursday
135,57609860.1137362
3420,57609860.1137362
3738,6791184.0
2,12, 1,12, 0, 6, 0.00,60.00,Thursday
135,57609860.1137362
3420,57609860.1137362
3738,6791184.0
2,12, 1,12, 0, 7, 0.00,60.00,Thursday
135,111149568.00469895
3420,111149568.00469895
3738,6791184.0
2,12, 1,12, 0, 8, 0.00,60.00,Thursday
135,192276694.7214146
3420,192276694.7214146
3738,141387715.11354586
2,12, 1,12, 0, 9, 0.00,60.00,Thursday
135,311075388.398997
3420,311075388.39899707
3738,92156876.21996492
2,12, 1,12, 0,10, 0.00,60.00,Thursday
135,268873873.59369695
3420,268873873.59369695
3738,79774908.61950108
2,12, 1,12, 0,11, 0.00,60.00,Thursday
135,262471194.20123845
3420,262471194.20123842
3738,63273340.38568707
2,12, 1,12, 0,12, 0.00,60.00,Thursday
135,274614850.44502455
3420,274614850.44502455
3738,57383996.55970138
2,12, 1,12, 0,13, 0.00,60.00,Thursday
135,293731095.6595886
3420,293731095.6595886
3738,49537091.97263217
2,12, 1,12, 0,14, 0.00,60.00,Thursday
135,285375648.4958774
3420,285375648.4958774
3738,44714949.65206267
2,12, 1,12, 0,15, 0.00,60.00,Thursday
135,269867333.9932852
3420,269867333.9932852
3738,25915802.26321773
2,12, 1,12, 0,16, 0.00,60.00,Thursday
135,269662649.1472768
3420,269662649.1472768
3738,33660585.08191324
2,12, 1,12, 0,17, 0.00,60.00,Thursday
135,288262997.70277244
3420,288262997.70277244
3738,42132900.21484226
2,12, 1,12, 0,18, 0.00,60.00,Thursday
135,250085965.22581303
3420,250085965.2258131
3738,56097540.044546336
2,12, 1,12, 0,19, 0.00,60.00,Thursday
135,133657373.78039162
3420,133657373.78039162
3738,83824878.06037928
2,12, 1,12, 0,20, 0.00,60.00,Thursday
135,113747951.05526678
3420,113747951.05526678
3738,81213521.564781
2,12, 1,12, 0,21, 0.00,60.00,Thursday
135,104944990.80844443
3420,104944990.80844444
3738,84880933.05109777
2,12, 1,12, 0,22, 0.00,60.00,Thursday
135,102168691.40970539
3420,102168691.40970539
3738,87244190.94559106
2,12, 1,12, 0,23, 0.00,60.00,Thursday
135,77772390.65670998
3420,77772390.65670998
3738,6791184.0
2,12, 1,12, 0,24, 0.00,60.00,Thursday
135,72442274.24247962
3420,72442274.24247962
3738,6791184.0
2,13, 1,13, 0, 1, 0.00,60.00,Friday
135,57996196.7332391
3420,57996196.7332391
3738,6791184.0
2,13, 1,13, 0, 2, 0.00,60.00,Friday