Program Version,EnergyPlus, Version 9.6.0-f420c06a69, YMD=2022.07.06 16:42
1,5,Environment Title[],Latitude[deg],Longitude[deg],Time Zone[],Elevation[m]
2,8,Day of Simulation[],Month[],Day of Month[],DST Indicator[1=yes 0=no],Hour[],StartMinute[],EndMinute[],DayType
3,5,Cumulative Day of Simulation[],Month[],Day of Month[],DST Indicator[1=yes 0=no],DayType  ! When Daily Meters Requested
4,2,Cumulative Days of Simulation[],Month[]  ! When Monthly Meters Requested
5,1,Cumulative Days of Simulation[] ! When Run Period Meters Requested
6,1,Calendar Year of Simulation[] ! When Annual Meters Requested
135,1,Electricity:Facility [J] !Hourly
3420,1,ElectricityNet:Facility [J] !Hourly
3738,1,NaturalGas:Facility [J] !Hourly
End of Data Dictionary
1,RUNPERIOD 1,  35.04,-106.62,  -7.00,1619.00
2,1, 1, 1, 0, 1, 0.00,60.00,Holiday
135,46359074.93593144
3420,46359074.93593143
3738,6791184.0
2,1, 1, 1, 0, 2, 0.00,60.00,Holiday
135,46359235.70955593
3420,46359235.709555924
3738,6791184.0
2,1, 1, 1, 0, 3, 0.00,60.00,Holiday
135,46359235.70955593
3420,46359235.709555924
3738,6791184.0
2,1, 1, 1, 0, 4, 0.00,60.00,Holiday
135,46359235.70955593
3420,46359235.709555924
3738,6791184.0
2,1, 1, 1, 0, 5, 0.00,60.00,Holiday
135,46359235.70955593
3420,46359235.709555924
3738,6791184.0
2,1, 1, 1, 0, 6, 0.00,60.00,Holiday
135,46359235.70955593
3420,46359235.709555924
3738,6791184.0
2,1, 1, 1, 0, 7, 0.00,60.00,Holiday
135,66032185.73006148
3420,66032185.73006148
3738,6791184.0
2,1, 1, 1, 0, 8, 0.00,60.00,Holiday
135,50074623.774579875
3420,50074623.774579875
3738,6791184.0
2,1, 1, 1, 0, 9, 0.00,60.00,Holiday
135,46351708.9331394
3420,46351708.9331394
3738,6791184.0
2,1, 1, 1, 0,10, 0.00,60.00,Holiday
135,46288813.17904917
3420,46288813.179049164
3738,6791184.0
2,1, 1, 1, 0,11, 0.00,60.00,Holiday
135,50556028.58634514
3420,50556028.58634514
3738,6791184.0
2,1, 1, 1, 0,12, 0.00,60.00,Holiday
135,53620061.07971074
3420,53620061.07971075
3738,6791184.0
2,1, 1, 1, 0,13, 0.00,60.00,Holiday
135,54251377.4482968
3420,54251377.44829681
3738,6791184.0
2,1, 1, 1, 0,14, 0.00,60.00,Holiday
135,58744815.664830714
3420,58744815.66483073
3738,6791184.0
2,1, 1, 1, 0,15, 0.00,60.00,Holiday
135,64652365.25448359
3420,64652365.25448359
3738,6791184.0
2,1, 1, 1, 0,16, 0.00,60.00,Holiday
135,62671968.53224909
3420,62671968.53224909
3738,6791184.0
2,1, 1, 1, 0,17, 0.00,60.00,Holiday
135,54610940.42094375
3420,54610940.42094375
3738,6791184.0
2,1, 1, 1, 0,18, 0.00,60.00,Holiday
135,66905826.86107348
3420,66905826.86107348
3738,6791184.0
2,1, 1, 1, 0,19, 0.00,60.00,Holiday
135,57105773.81922845
3420,57105773.81922844
3738,6791184.0
2,1, 1, 1, 0,20, 0.00,60.00,Holiday
135,48904615.70955593
3420,48904615.70955593
3738,6791184.0
2,1, 1, 1, 0,21, 0.00,60.00,Holiday
135,48904615.70955593
3420,48904615.70955593
3738,6791184.0
2,1, 1, 1, 0,22, 0.00,60.00,Holiday
135,48904615.70955593
3420,48904615.70955593
3738,6791184.0
2,1, 1, 1, 0,23, 0.00,60.00,Holiday
135,48904615.70955593
3420,48904615.70955593
3738,6791184.0
2,1, 1, 1, 0,24, 0.00,60.00,Holiday
135,48904615.70955593
3420,48904615.70955593
3738,6791184.0
2,2, 1, 2, 0, 1, 0.00,60.00,Monday
135,57609860.1137362
3420,57609860.1137362
3738,6791184.0
2,2, 1, 2, 0, 2, 0.00,60.00,Monday
135,57609860.1137362
3420,57609860.1137362
3738,6791184.0
2,2, 1, 2, 0, 3, 0.00,60.00,Monday
135,57609860.1137362
3420,57609860.1137362
3738,6791184.0
2,2, 1, 2, 0, 4, 0.00,60.00,Monday
135,57609860.1137362
3420,57609860.1137362
3738,6791184.0
2,2, 1, 2, 0, 5, 0.00,60.00,Monday
135,57609860.1137362
3420,57609860.1137362
3738,6791184.0
2,2, 1, 2, 0, 6, 0.00,60.00,Monday
135,57609860.1137362
3420,57609860.1137362
3738,6791184.0
2,2, 1, 2, 0, 7, 0.00,60.00,Monday
135,134878218.9732619
3420,134878218.97326186
3738,6791184.0
2,2, 1, 2, 0, 8, 0.00,60.00,Monday
135,224447349.34681612
3420,224447349.34681612
3738,144051788.3317502
2,2, 1, 2, 0, 9, 0.00,60.00,Monday
135,310113173.5226268
3420,310113173.52262676
3738,88876839.65152809
2,2, 1, 2, 0,10, 0.00,60.00,Monday
135,271365063.6523837
3420,271365063.6523836
3738,60265923.85270449
2,2, 1, 2, 0,11, 0.00,60.00,Monday
135,268042805.41555253
3420,268042805.41555253
3738,22324186.92765486
2,2, 1, 2, 0,12, 0.00,60.00,Monday
135,288256589.4717232
3420,288256589.4717232
3738,20876794.54329522
2,2, 1, 2, 0,13, 0.00,60.00,Monday
135,289626908.83261126
3420,289626908.83261126
3738,31334423.78333511
2,2, 1, 2, 0,14, 0.00,60.00,Monday
135,304560312.7598077
3420,304560312.75980777
3738,26165958.14784857
2,2, 1, 2, 0,15, 0.00,60.00,Monday
135,297207055.59561163
3420,297207055.5956117
3738,16649506.089210246
2,2, 1, 2, 0,16, 0.00,60.00,Monday
135,301765850.1485542
3420,301765850.1485542
3738,19089949.697671723
2,2, 1, 2, 0,17, 0.00,60.00,Monday
135,300883689.7626623
3420,300883689.7626623
3738,20696611.81849547
2,2, 1, 2, 0,18, 0.00,60.00,Monday
135,237763786.45298475
3420,237763786.45298478
3738,22828722.127478585
2,2, 1, 2, 0,19, 0.00,60.00,Monday
135,131185250.1779861
3420,131185250.1779861
3738,54000351.72755138
2,2, 1, 2, 0,20, 0.00,60.00,Monday
135,115788227.31176195
3420,115788227.31176195
3738,68630236.21559957
2,2, 1, 2, 0,21, 0.00,60.00,Monday
135,107180701.07736793
3420,107180701.07736793
3738,80740475.22169581
2,2, 1, 2, 0,22, 0.00,60.00,Monday
135,104935694.04120313
3420,104935694.04120316
3738,82360406.46165311
2,2, 1, 2, 0,23, 0.00,60.00,Monday
135,77772390.65670998
3420,77772390.65670998
3738,6791184.0
2,2, 1, 2, 0,24, 0.00,60.00,Monday
135,72442274.24247962
3420,72442274.24247962
3738,6791184.0
2,3, 1, 3, 0, 1, 0.00,60.00,Tuesday
135,57996196.7332391
3420,57996196.7332391
3738,6791184.0
2,3, 1, 3, 0, 2, 0.00,60.00,Tuesday
135,57609860.1137362
3420,57609860.1137362
3738,6791184.0
2,3, 1, 3, 0, 3, 0.00,60.00,Tuesday
135,57609860.1137362
3420,57609860.1137362
3738,6791184.0
2,3, 1, 3, 0, 4, 0.00,60.00,Tuesday
135,57609860.1137362
3420,57609860.1137362
3738,6791184.0
2,3, 1, 3, 0, 5, 0.00,60.00,Tuesday
135,57609860.1137362
3420,57609860.1137362
3738,6791184.0
2,3, 1, 3, 0, 6, 0.00,60.00,Tuesday
135,57609860.1137362
3420,57609860.1137362
3738,6791184.0
2,3, 1, 3, 0, 7, 0.00,60.00,Tuesday
135,110246891.9321736
3420,110246891.9321736
3738,6791184.0
2,3, 1, 3, 0, 8, 0.00,60.00,Tuesday
135,189787777.19002396
3420,189787777.19002393
3738,127893569.43827754
2,3, 1, 3, 0, 9, 0.00,60.00,Tuesday
135,311735474.6462774
3420,311735474.64627737
3738,74048611.90492582
2,3, 1, 3, 0,10, 0.00,60.00,Tuesday
135,277285498.1859546
3420,277285498.1859546
3738,33473696.454957783
2,3, 1, 3, 0,11, 0.00,60.00,Tuesday
135,276669119.4453627
3420,276669119.44536257
3738,11005409.7709702
2,3, 1, 3, 0,12, 0.00,60.00,Tuesday
135,294510040.65947235
3420,294510040.65947235
3738,23274910.85150368
2,3, 1, 3, 0,13, 0.00,60.00,Tuesday
135,296008760.87337774
3420,296008760.87337774
3738,31313196.53816751
2,3, 1, 3, 0,14, 0.00,60.00,Tuesday
135,312459596.2197046
3420,312459596.2197046
3738,26179341.570204668
2,3, 1, 3, 0,15, 0.00,60.00,Tuesday
135,300132587.72396576
3420,300132587.72396576
3738,20134709.813017763
2,3, 1, 3, 0,16, 0.00,60.00,Tuesday
135,303905456.6083193
3420,303905456.6083192
3738,15642458.513267582
2,3, 1, 3, 0,17, 0.00,60.00,Tuesday
135,306143708.642809
3420,306143708.6428089
3738,20958292.106283188
2,3, 1, 3, 0,18, 0.00,60.00,Tuesday
135,241887659.15678734
3420,241887659.15678728
3738,17408500.555825397
2,3, 1, 3, 0,19, 0.00,60.00,Tuesday
135,131936317.85543132
3420,131936317.85543132
3738,31714708.765812345
2,3, 1, 3, 0,20, 0.00,60.00,Tuesday
135,113569604.38930234
3420,113569604.38930234
3738,51650092.05562477
2,3, 1, 3, 0,21, 0.00,60.00,Tuesday
135,102910895.06207252
3420,102910895.06207252
3738,60710470.68437332
2,3, 1, 3, 0,22, 0.00,60.00,Tuesday
135,99700727.8095243
3420,99700727.80952433
3738,89792459.07201333
2,3, 1, 3, 0,23, 0.00,60.00,Tuesday
135,77772390.65670998
3420,77772390.65670998
3738,6791184.0
2,3, 1, 3, 0,24, 0.00,60.00,Tuesday
135,72442274.24247962
3420,72442274.24247962
3738,6791184.0
2,4, 1, 4, 0, 1, 0.00,60.00,Wednesday
135,57996196.7332391
3420,57996196.7332391
3738,6791184.0
2,4, 1, 4, 0, 2, 0.00,60.00,Wednesday
135,57609860.1137362
3420,57609860.1137362
3738,6791184.0
2,4, 1, 4, 0, 3, 0.00,60.00,Wednesday
135,57609860.1137362
3420,57609860.1137362
3738,6791184.0
2,4, 1, 4, 0, 4, 0.00,60.00,Wednesday
135,57609860.1137362
3420,57609860.1137362
3738,6791184.0
2,4, 1, 4, 0, 5, 0.00,60.00,Wednesday
135,57609860.1137362
3420,57609860.1137362
3738,6791184.0
2,4, 1, 4, 0, 6, 0.00,60.00,Wednesday
135,57609860.1137362
3420,57609860.1137362
3738,6791184.0
2,4, 1, 4, 0, 7, 0.00,60.00,Wednesday
135,106404852.69745946
3420,106404852.69745946
3738,6791184.0
2,4, 1, 4, 0, 8, 0.00,60.00,Wednesday
135,188565720.77044547
3420,188565720.77044547
3738,148199627.5746022
2,4, 1, 4, 0, 9, 0.00,60.00,Wednesday
135,309354701.0787325
3420,309354701.07873243
3738,87295595.8595211
2,4, 1, 4, 0,10, 0.00,60.00,Wednesday
135,271026351.7007154
3420,271026351.7007154
3738,59254591.49081121
2,4, 1, 4, 0,11, 0.00,60.00,Wednesday
135,265318671.5172772
3420,265318671.51727718
3738,39948447.48624557
2,4, 1, 4, 0,12, 0.00,60.00,Wednesday
135,279645244.1066742
3420,279645244.1066742
3738,25541763.37515947
2,4, 1, 4, 0,13, 0.00,60.00,Wednesday
135,285036500.36897314
3420,285036500.36897314
3738,31353602.7696282
2,4, 1, 4, 0,14, 0.00,60.00,Wednesday
135,290539473.76102394
3420,290539473.761024
3738,26188331.473116525
2,4, 1, 4, 0,15, 0.00,60.00,Wednesday
135,275382545.1739855
3420,275382545.1739854
3738,20161876.20028919
2,4, 1, 4, 0,16, 0.00,60.00,Wednesday
135,274729933.92175806
3420,274729933.921758
3738,15652007.149297282
2,4, 1, 4, 0,17, 0.00,60.00,Wednesday
135,293946662.7412273
3420,293946662.7412273
3738,26029941.937525503
2,4, 1, 4, 0,18, 0.00,60.00,Wednesday
135,251363564.59847397
3420,251363564.598474
3738,35803821.783467926
2,4, 1, 4, 0,19, 0.00,60.00,Wednesday
135,131401422.6257093
3420,131401422.6257093
3738,68945687.14446522
2,4, 1, 4, 0,20, 0.00,60.00,Wednesday
135,113569604.38930234
3420,113569604.38930234
3738,90428521.51909764
2,4, 1, 4, 0,21, 0.00,60.00,Wednesday
135,103679618.82128547
3420,103679618.82128549
3738,109760349.41259393
2,4, 1, 4, 0,22, 0.00,60.00,Wednesday
135,102287954.89657912
3420,102287954.89657915
3738,125593157.34865507
2,4, 1, 4, 0,23, 0.00,60.00,Wednesday
135,77772390.65670998
3420,77772390.65670998
3738,6791184.0
2,4, 1, 4, 0,24, 0.00,60.00,Wednesday
135,72442274.24247962
3420,72442274.24247962
3738,6791184.0
2,5, 1, 5, 0, 1, 0.00,60.00,Thursday
135,57996196.7332391
3420,57996196.7332391
3738,6791184.0
2,5, 1, 5, 0, 2, 0.00,60.00,Thursday
135,57609860.1137362
3420,57609860.1137362
3738,6791184.0
2,5, 1, 5, 0, 3, 0.00,60.00,Thursday
135,57609860.1137362
3420,57609860.1137362
3738,6791184.0
2,5, 1, 5, 0, 4, 0.00,60.00,Thursday
135,57609860.1137362
3420,57609860.1137362
3738,6791184.0
2,5, 1, 5, 0, 5, 0.00,60.00,Thursday
135,57609860.1137362
3420,57609860.1137362
3738,6791184.0
2,5, 1, 5, 0, 6, 0.00,60.00,Thursday
135,57609860.1137362
3420,57609860.1137362
3738,6791184.0
2,5, 1, 5, 0, 7, 0.00,60.00,Thursday
135,111400815.85960624
3420,111400815.85960624
3738,6791184.0
2,5, 1, 5, 0, 8, 0.00,60.00,Thursday
135,193674499.64040983
3420,193674499.6404098
3738,156211357.21908158
2,5, 1, 5, 0, 9, 0.00,60.00,Thursday
135,311429860.5932497
3420,311429860.5932497
3738,82515663.52737747
2,5, 1, 5, 0,10, 0.00,60.00,Thursday
135,275695820.4803591
3420,275695820.4803591
3738,32815409.692369252
2,5, 1, 5, 0,11, 0.00,60.00,Thursday
135,275120753.65634537
3420,275120753.65634537
3738,12343497.26518673
2,5, 1, 5, 0,12, 0.00,60.00,Thursday
135,288625233.23597485
3420,288625233.2359748
3738,20890825.086617224
2,5, 1, 5, 0,13, 0.00,60.00,Thursday
135,290571412.0176488
3420,290571412.0176488
3738,31304480.57135491
2,5, 1, 5, 0,14, 0.00,60.00,Thursday
135,311730955.2716509
3420,311730955.2716509
3738,26188822.345931582
2,5, 1, 5, 0,15, 0.00,60.00,Thursday
135,304178189.2982776
3420,304178189.29827756
3738,20202925.85447424
2,5, 1, 5, 0,16, 0.00,60.00,Thursday
135,306641204.65145046
3420,306641204.6514505
3738,15641115.556860995
2,5, 1, 5, 0,17, 0.00,60.00,Thursday
135,309579358.28774196
3420,309579358.2877419
3738,25322188.804935567
2,5, 1, 5, 0,18, 0.00,60.00,Thursday
135,244726827.8985756
3420,244726827.89857563
3738,11199242.259966733
2,5, 1, 5, 0,19, 0.00,60.00,Thursday
135,132295647.626241
3420,132295647.626241
3738,26158435.795134816
2,5, 1, 5, 0,20, 0.00,60.00,Thursday
135,113569604.38930234
3420,113569604.38930234
3738,54480317.48507451
2,5, 1, 5, 0,21, 0.00,60.00,Thursday
135,102910895.06207252
3420,102910895.06207252
3738,70895050.2645863
2,5, 1, 5, 0,22, 0.00,60.00,Thursday
135,99523119.58983928
3420,99523119.58983928
3738,91200936.28651503
2,5, 1, 5, 0,23, 0.00,60.00,Thursday
135,77772390.65670998
3420,77772390.65670998
3738,6791184.0
2,5, 1, 5, 0,24, 0.00,60.00,Thursday
135,72442274.24247962
3420,72442274.24247962
3738,6791184.0
2,6, 1, 6, 0, 1, 0.00,60.00,Friday
135,57996196.7332391
3420,57996196.7332391
3738,6791184.0
2,6, 1, 6, 0, 2, 0.00,60.00,Friday
135,57609860.1137362
3420,57609860.1137362
3738,6791184.0
2,6, 1, 6, 0, 3, 0.00,60.00,Friday
135,57609860.1137362
3420,57609860.1137362
3738,6791184.0
2,6, 1, 6, 0, 4, 0.00,60.00,Friday
135,57609860.1137362
3420,57609860.1137362
3738,6791184.0
2,6, 1, 6, 0, 5, 0.00,60.00,Friday
135,57609860.1137362
3420,57609860.1137362
3738,6791184.0
2,6, 1, 6, 0, 6, 0.00,60.00,Friday
135,57609860.1137362
3420,57609860.1137362
3738,6791184.0
2,6, 1, 6, 0, 7, 0.00,60.00,Friday
135,110469369.40672676
3420,110469369.40672676
3738,6791184.0
2,6, 1, 6, 0, 8, 0.00,60.00,Friday
135,200276053.38281906
3420,200276053.382819
3738,128310758.17367868
2,6, 1, 6, 0, 9, 0.00,60.00,Friday
135,316383710.0543585
3420,316383710.0543585
3738,84117307.17343484
2,6, 1, 6, 0,10, 0.00,60.00,Friday
135,271177985.4992446
3420,271177985.4992446
3738,72335734.0128671
2,6, 1, 6, 0,11, 0.00,60.00,Friday
135,263005713.17751363
3420,263005713.1775136
3738,54487750.91851282
2,6, 1, 6, 0,12, 0.00,60.00,Friday
135,279898761.0723776
3420,279898761.0723776
3738,38154498.23704706
2,6, 1, 6, 0,13, 0.00,60.00,Friday
135,287144766.5995855
3420,287144766.5995855
3738,27618186.491847653
2,6, 1, 6, 0,14, 0.00,60.00,Friday
135,298872806.22155845
3420,298872806.22155845
3738,29931906.5368241
2,6, 1, 6, 0,15, 0.00,60.00,Friday
135,287705870.8161422
3420,287705870.81614214
3738,15682844.976978704
2,6, 1, 6, 0,16, 0.00,60.00,Friday
135,289804982.5744059
3420,289804982.5744059
3738,20085768.658329524
2,6, 1, 6, 0,17, 0.00,60.00,Friday
135,302343747.4328348
3420,302343747.43283474
3738,20705866.88984832
2,6, 1, 6, 0,18, 0.00,60.00,Friday
135,251007489.79862642
3420,251007489.79862642
3738,45258282.94353101
2,6, 1, 6, 0,19, 0.00,60.00,Friday
135,131314278.31529093
3420,131314278.31529093
3738,64793450.545800224
2,6, 1, 6, 0,20, 0.00,60.00,Friday
135,113643085.1870515
3420,113643085.1870515
3738,72751289.16121872
2,6, 1, 6, 0,21, 0.00,60.00,Friday
135,104826839.05986643
3420,104826839.05986646
3738,92789654.43588546
2,6, 1, 6, 0,22, 0.00,60.00,Friday
135,101878042.93211201
3420,101878042.93211201
3738,94074878.99807906
2,6, 1, 6, 0,23, 0.00,60.00,Friday
135,77772390.65670998
3420,77772390.65670998
3738,6791184.0
2,6, 1, 6, 0,24, 0.00,60.00,Friday
135,72442274.24247962
3420,72442274.24247962
3738,6791184.0
2,7, 1, 7, 0, 1, 0.00,60.00,Saturday
135,46745513.81922844
3420,46745513.81922843
3738,6791184.0
2,7, 1, 7, 0, 2, 0.00,60.00,Saturday
135,46359235.70955593
3420,46359235.709555924
3738,6791184.0
2,7, 1, 7, 0, 3, 0.00,60.00,Saturday
135,46359235.70955593
3420,46359235.709555924
3738,6791184.0
2,7, 1, 7, 0, 4, 0.00,60.00,Saturday
135,46359235.70955593
3420,46359235.709555924
3738,6791184.0
2,7, 1, 7, 0, 5, 0.00,60.00,Saturday
135,46359235.70955593
3420,46359235.709555924
3738,6791184.0
2,7, 1, 7, 0, 6, 0.00,60.00,Saturday
135,46359235.70955593
3420,46359235.709555924
3738,6791184.0
2,7, 1, 7, 0, 7, 0.00,60.00,Saturday
135,113431563.6791592
3420,113431563.67915916
3738,6791184.0
2,7, 1, 7, 0, 8, 0.00,60.00,Saturday
135,143540566.20911476
3420,143540566.20911476
3738,121961145.07724692
2,7, 1, 7, 0, 9, 0.00,60.00,Saturday
135,134565013.07799214
3420,134565013.07799214
3738,101963041.83184421
2,7, 1, 7, 0,10, 0.00,60.00,Saturday
135,135710879.36622488
3420,135710879.36622488
3738,86030287.20244128
2,7, 1, 7, 0,11, 0.00,60.00,Saturday
135,128316892.21537119
3420,128316892.2153712
3738,56202210.86727573
2,7, 1, 7, 0,12, 0.00,60.00,Saturday
135,136238579.31748748
3420,136238579.31748745
3738,18912866.311076675
2,7, 1, 7, 0,13, 0.00,60.00,Saturday
135,96302637.69268893
3420,96302637.69268893
3738,8746365.48410755
2,7, 1, 7, 0,14, 0.00,60.00,Saturday
135,86589938.64018135
3420,86589938.64018135
3738,8591700.420580426
2,7, 1, 7, 0,15, 0.00,60.00,Saturday
135,80777988.06353001
3420,80777988.06353001
3738,7108716.656806473
2,7, 1, 7, 0,16, 0.00,60.00,Saturday
135,76233398.28453368
3420,76233398.28453368
3738,12700143.925023232
2,7, 1, 7, 0,17, 0.00,60.00,Saturday
135,78839609.01418598
3420,78839609.01418598
3738,22807507.065257974
2,7, 1, 7, 0,18, 0.00,60.00,Saturday
135,83077160.33306564
3420,83077160.33306564
3738,38681521.48580959
2,7, 1, 7, 0,19, 0.00,60.00,Saturday
135,66276703.53612528
3420,66276703.53612528
3738,6791184.0
2,7, 1, 7, 0,20, 0.00,60.00,Saturday
135,49290893.81922844
3420,49290893.81922844
3738,6791184.0
2,7, 1, 7, 0,21, 0.00,60.00,Saturday
135,48904615.70955593
3420,48904615.70955593
3738,6791184.0
2,7, 1, 7, 0,22, 0.00,60.00,Saturday
135,48904615.70955593
3420,48904615.70955593
3738,6791184.0
2,7, 1, 7, 0,23, 0.00,60.00,Saturday
135,48904615.70955593
3420,48904615.70955593
3738,6791184.0
2,7, 1, 7, 0,24, 0.00,60.00,Saturday
135,48904615.70955593
3420,48904615.70955593
3738,6791184.0
2,8, 1, 8, 0, 1, 0.00,60.00,Sunday
135,46359235.70955593
3420,46359235.709555924
3738,6791184.0
2,8, 1, 8, 0, 2, 0.00,60.00,Sunday
135,46359235.70955593
3420,46359235.709555924
3738,6791184.0
2,8, 1, 8, 0, 3, 0.00,60.00,Sunday
135,46359235.70955593
3420,46359235.709555924
3738,6791184.0
2,8, 1, 8, 0, 4, 0.00,60.00,Sunday
135,46359235.70955593
3420,46359235.709555924
3738,6791184.0
2,8, 1, 8, 0, 5, 0.00,60.00,Sunday
135,46359235.70955593
3420,46359235.709555924
3738,6791184.0
2,8, 1, 8, 0, 6, 0.00,60.00,Sunday
135,46359235.70955593
3420,46359235.709555924
3738,6791184.0
2,8, 1, 8, 0, 7, 0.00,60.00,Sunday
135,66032185.73006148
3420,66032185.73006148
3738,6791184.0
2,8, 1, 8, 0, 8, 0.00,60.00,Sunday
135,53323580.330645084
3420,53323580.330645084
3738,6791184.0
2,8, 1, 8, 0, 9, 0.00,60.00,Sunday
135,46344166.24829911
3420,46344166.24829911
3738,6791184.0
2,8, 1, 8, 0,10, 0.00,60.00,Sunday
135,46288812.51597283
3420,46288812.51597283
3738,6791184.0
2,8, 1, 8, 0,11, 0.00,60.00,Sunday
135,47482047.96533726
3420,47482047.96533726
3738,6791184.0
2,8, 1, 8, 0,12, 0.00,60.00,Sunday
135,51488728.5470697
3420,51488728.54706968
3738,6791184.0
2,8, 1, 8, 0,13, 0.00,60.00,Sunday
135,53573237.42115781
3420,53573237.421157815
3738,6791184.0
2,8, 1, 8, 0,14, 0.00,60.00,Sunday
135,54336553.42654967
3420,54336553.42654967
3738,6791184.0
2,8, 1, 8, 0,15, 0.00,60.00,Sunday
135,53604276.94476943
3420,53604276.94476943
3738,6791184.0
2,8, 1, 8, 0,16, 0.00,60.00,Sunday
135,54153496.16548556
3420,54153496.165485576
3738,6791184.0
2,8, 1, 8, 0,17, 0.00,60.00,Sunday
135,49057403.79324109
3420,49057403.79324109
3738,6791184.0
2,8, 1, 8, 0,18, 0.00,60.00,Sunday
135,66276671.30593526
3420,66276671.30593526
3738,6791184.0
2,8, 1, 8, 0,19, 0.00,60.00,Sunday
135,57105773.81922845
3420,57105773.81922844
3738,6791184.0
2,8, 1, 8, 0,20, 0.00,60.00,Sunday
135,48904615.70955593
3420,48904615.70955593
3738,6791184.0
2,8, 1, 8, 0,21, 0.00,60.00,Sunday
135,48904615.70955593
3420,48904615.70955593
3738,6791184.0
2,8, 1, 8, 0,22, 0.00,60.00,Sunday
135,48904615.70955593
3420,48904615.70955593
3738,6791184.0
2,8, 1, 8, 0,23, 0.00,60.00,Sunday
135,48904615.70955593
3420,48904615.70955593
3738,6791184.0
2,8, 1, 8, 0,24, 0.00,60.00,Sunday
135,48904615.70955593
3420,48904615.70955593
3738,6791184.0
2,9, 1, 9, 0, 1, 0.00,60.00,Monday
135,57609860.1137362
3420,57609860.1137362
3738,6791184.0
2,9, 1, 9, 0, 2, 0.00,60.00,Monday
135,57609860.1137362
3420,57609860.1137362
3738,6791184.0
2,9, 1, 9, 0, 3, 0.00,60.00,Monday
135,57609860.1137362
3420,57609860.1137362
3738,6791184.0
2,9, 1, 9, 0, 4, 0.00,60.00,Monday
135,57609860.1137362
3420,57609860.1137362
3738,6791184.0
2,9, 1, 9, 0, 5, 0.00,60.00,Monday
135,57609860.1137362
3420,57609860.1137362
3738,6791184.0
2,9, 1, 9, 0, 6, 0.00,60.00,Monday
135,57609860.1137362
3420,57609860.1137362
3738,6791184.0
2,9, 1, 9, 0, 7, 0.00,60.00,Monday
135,130874909.98892063
3420,130874909.98892063
3738,6791184.0
2,9, 1, 9, 0, 8, 0.00,60.00,Monday
135,219863851.03610596
3420,219863851.03610596
3738,134814714.64542177
2,9, 1, 9, 0, 9, 0.00,60.00,Monday
135,314524088.1269316
3420,314524088.12693155
3738,82081884.96694824
2,9, 1, 9, 0,10, 0.00,60.00,Monday
135,274454305.8880181
3420,274454305.8880181
3738,56556808.757468626
2,9, 1, 9, 0,11, 0.00,60.00,Monday
135,270135145.49439734
3420,270135145.49439734
3738,21111317.523358945
2,9, 1, 9, 0,12, 0.00,60.00,Monday
135,288004553.0936958
3420,288004553.0936958
3738,20903860.135263924
2,9, 1, 9, 0,13, 0.00,60.00,Monday
135,291020834.11167055
3420,291020834.1116706
3738,31355574.569349878
2,9, 1, 9, 0,14, 0.00,60.00,Monday
135,307149301.66990703
3420,307149301.66990703
3738,26214925.690621987
2,9, 1, 9, 0,15, 0.00,60.00,Monday
135,301578418.83340794
3420,301578418.8334079
3738,20171153.605852444
2,9, 1, 9, 0,16, 0.00,60.00,Monday
135,310318314.9656026
3420,310318314.9656026
3738,15658124.313067552
2,9, 1, 9, 0,17, 0.00,60.00,Monday
135,320828368.80970764
3420,320828368.80970764
3738,25336592.120658584
2,9, 1, 9, 0,18, 0.00,60.00,Monday
135,241993383.38018698
3420,241993383.38018698
3738,12481970.032678666
2,9, 1, 9, 0,19, 0.00,60.00,Monday
135,131833472.23842835
3420,131833472.23842835
3738,31566330.037529316
2,9, 1, 9, 0,20, 0.00,60.00,Monday
135,113658520.0642707
3420,113658520.0642707
3738,40796032.99675183
2,9, 1, 9, 0,21, 0.00,60.00,Monday
135,104199512.2213394
3420,104199512.2213394
3738,30607594.176734515
2,9, 1, 9, 0,22, 0.00,60.00,Monday
135,101140301.21426524
3420,101140301.21426526
3738,37932079.18391246
2,9, 1, 9, 0,23, 0.00,60.00,Monday
135,77772390.65670998
3420,77772390.65670998
3738,6791184.0
2,9, 1, 9, 0,24, 0.00,60.00,Monday
135,72442274.24247962
3420,72442274.24247962
3738,6791184.0
2,10, 1,10, 0, 1, 0.00,60.00,Tuesday
135,57996196.7332391
3420,57996196.7332391
3738,6791184.0
2,10, 1,10, 0, 2, 0.00,60.00,Tuesday
135,57609860.1137362
3420,57609860.1137362
3738,6791184.0
2,10, 1,10, 0, 3, 0.00,60.00,Tuesday
135,57609860.1137362
3420,57609860.1137362
3738,6791184.0
2,10, 1,10, 0, 4, 0.00,60.00,Tuesday
135,57609860.1137362
3420,57609860.1137362
3738,6791184.0
2,10, 1,10, 0, 5, 0.00,60.00,Tuesday
135,57609860.1137362
3420,57609860.1137362
3738,6791184.0
2,10, 1,10, 0, 6, 0.00,60.00,Tuesday
135,57609860.1137362
3420,57609860.1137362
3738,6791184.0
2,10, 1,10, 0, 7, 0.00,60.00,Tuesday
135,112772656.68456443
3420,112772656.68456441
3738,6791184.0
2,10, 1,10, 0, 8, 0.00,60.00,Tuesday
135,194669359.45266792
3420,194669359.45266792
3738,148831499.61596972
2,10, 1,10, 0, 9, 0.00,60.00,Tuesday
135,308373812.62274
3420,308373812.62274
3738,95507771.78968261
2,10, 1,10, 0,10, 0.00,60.00,Tuesday
135,269139985.7882458
3420,269139985.7882458
3738,74264759.93653516
2,10, 1,10, 0,11, 0.00,60.00,Tuesday
135,261640943.55982742
3420,261640943.55982742
3738,64111388.08981934
2,10, 1,10, 0,12, 0.00,60.00,Tuesday
135,271439373.4567762
3420,271439373.45677614
3738,74852467.07922481
2,10, 1,10, 0,13, 0.00,60.00,Tuesday
135,290176276.3902927
3420,290176276.3902927
3738,56291363.43620306
2,10, 1,10, 0,14, 0.00,60.00,Tuesday
135,287603318.38500124
3420,287603318.3850012
3738,35218499.023291364
2,10, 1,10, 0,15, 0.00,60.00,Tuesday
135,279589274.8585865
3420,279589274.8585864
3738,16091584.29445807
2,10, 1,10, 0,16, 0.00,60.00,Tuesday
135,281718961.3068061
3420,281718961.306806
3738,17427702.15540052
2,10, 1,10, 0,17, 0.00,60.00,Tuesday
135,293726294.7368475
3420,293726294.73684746
3738,23488204.99671352
2,10, 1,10, 0,18, 0.00,60.00,Tuesday
135,250308274.80259702
3420,250308274.80259705
3738,38265409.75156986
2,10, 1,10, 0,19, 0.00,60.00,Tuesday
135,130970052.5970779
3420,130970052.59707788
3738,78082297.80301765
2,10, 1,10, 0,20, 0.00,60.00,Tuesday
135,113838295.10542287
3420,113838295.10542287
3738,81958551.441442
2,10, 1,10, 0,21, 0.00,60.00,Tuesday
135,104659607.84001012
3420,104659607.84001012
3738,91420089.4931531
2,10, 1,10, 0,22, 0.00,60.00,Tuesday
135,103582944.21591446
3420,103582944.21591446
3738,104104470.63389988
2,10, 1,10, 0,23, 0.00,60.00,Tuesday
135,77772390.65670998
3420,77772390.65670998
3738,6791184.0
2,10, 1,10, 0,24, 0.00,60.00,Tuesday
135,72442274.24247962
3420,72442274.24247962
3738,6791184.0
2,11, 1,11, 0, 1, 0.00,60.00,Wednesday
135,57996196.7332391
3420,57996196.7332391
3738,6791184.0
2,11, 1,11, 0, 2, 0.00,60.00,Wednesday
135,57609860.1137362
3420,57609860.1137362
3738,6791184.0
2,11, 1,11, 0, 3, 0.00,60.00,Wednesday
135,57609860.1137362
3420,57609860.1137362
3738,6791184.0
2,11, 1,11, 0, 4, 0.00,60.00,Wednesday
135,57609860.1137362
3420,57609860.1137362
3738,6791184.0
2,11, 1,11, 0, 5, 0.00,60.00,Wednesday
135,57609860.1137362
3420,57609860.1137362
3738,6791184.0
2,11, 1,11, 0, 6, 0.00,60.00,Wednesday
135,57609860.1137362
3420,57609860.1137362
3738,6791184.0
2,11, 1,11, 0, 7, 0.00,60.00,Wednesday
135,108176289.46303481
3420,108176289.46303481
3738,6791184.0
2,11, 1,11, 0, 8, 0.00,60.00,Wednesday
135,188571195.56010675
3420,188571195.56010675
3738,91089218.91242936
2,11, 1,11, 0, 9, 0.00,60.00,Wednesday
135,304207007.2422625
3420,304207007.2422625
3738,62276994.171210535
2,11, 1,11, 0,10, 0.00,60.00,Wednesday
135,267270335.1237141
3420,267270335.1237141
3738,48109666.83226661
2,11, 1,11, 0,11, 0.00,60.00,Wednesday
135,261486599.00354886
3420,261486599.0035488
3738,20342898.143538505
2,11, 1,11, 0,12, 0.00,60.00,Wednesday
135,270136488.14734936
3420,270136488.1473493
3738,29662380.091457445
2,11, 1,11, 0,13, 0.00,60.00,Wednesday
135,275037222.99464643
3420,275037222.99464643
3738,42471663.534770265
2,11, 1,11, 0,14, 0.00,60.00,Wednesday
135,273834449.25412184
3420,273834449.25412184
3738,30829426.356893633
2,11, 1,11, 0,15, 0.00,60.00,Wednesday
135,259758512.2337096
3420,259758512.23370957
3738,22671974.002744477
2,11, 1,11, 0,16, 0.00,60.00,Wednesday
135,260099069.2859301
3420,260099069.28593007
3738,28423702.191195704
2,11, 1,11, 0,17, 0.00,60.00,Wednesday
135,277218363.25709087
3420,277218363.2570908
3738,56863901.07629173
2,11, 1,11, 0,18, 0.00,60.00,Wednesday
135,241956504.67296118
3420,241956504.67296118
3738,60719628.57563293
2,11, 1,11, 0,19, 0.00,60.00,Wednesday
135,131773629.91409996
3420,131773629.91409996
3738,89136423.49104264
2,11, 1,11, 0,20, 0.00,60.00,Wednesday
135,114016805.46753275
3420,114016805.46753275
3738,98165264.98151864
2,11, 1,11, 0,21, 0.00,60.00,Wednesday
135,105350894.06658894
3420,105350894.06658895
3738,97702864.01923352
2,11, 1,11, 0,22, 0.00,60.00,Wednesday
135,103389100.44416158
3420,103389100.44416158
3738,108271671.44005178
2,11, 1,11, 0,23, 0.00,60.00,Wednesday
135,77772390.65670998
3420,77772390.65670998
3738,6791184.0
2,11, 1,11, 0,24, 0.00,60.00,Wednesday
135,72442274.24247962
3420,72442274.24247962
3738,6791184.0
2,12, 1,12, 0, 1, 0.00,60.00,Thursday
135,57996196.7332391
3420,57996196.7332391
3738,6791184.0
2,12, 1,12, 0, 2, 0.00,60.00,Thursday
135,57609860.1137362
3420,57609860.1137362
3738,6791184.0
2,12, 1,12, 0, 3, 0.00,60.00,Thursday
135,57609860.1137362
3420,57609860.1137362
3738,6791184.0
2,12, 1,12, 0, 4, 0.00,60.00,Thursday
135,57609860.1137362
3420,57609860.1137362
3738,6791184.0
2,12, 1,12, 0, 5, 0.00,60.00,Thursday
135,57609860.1137362
3420,57609860.1137362
3738,6791184.0
2,12, 1,12, 0, 6, 0.00,60.00,Thursday
135,57609860.1137362
3420,57609860.1137362
3738,6791184.0
2,12, 1,12, 0, 7, 0.00,60.00,Thursday
135,111928343.09875196
3420,111928343.09875195
3738,6791184.0
2,12, 1,12, 0, 8, 0.00,60.00,Thursday
135,193847453.96938455
3420,193847453.96938452
3738,138876069.83081773
2,12, 1,12, 0, 9, 0.00,60.00,Thursday
135,310952204.2176178
3420,310952204.21761787
3738,90101079.77201515
2,12, 1,12, 0,10, 0.00,60.00,Thursday
135,268705247.9418546
3420,268705247.9418546
3738,77499203.0713041
2,12, 1,12, 0,11, 0.00,60.00,Thursday
135,262226110.89571184
3420,262226110.89571184
3738,61285785.191492796
2,12, 1,12, 0,12, 0.00,60.00,Thursday
135,274339490.1901089
3420,274339490.1901089
3738,55482103.73379757
2,12, 1,12, 0,13, 0.00,60.00,Thursday
135,293199561.6800054
3420,293199561.6800054
3738,47694159.73675657
2,12, 1,12, 0,14, 0.00,60.00,Thursday
135,285124102.4923864
3420,285124102.4923864
3738,43130876.68955637
2,12, 1,12, 0,15, 0.00,60.00,Thursday
135,269662568.1266829
3420,269662568.12668276
3738,24266566.491991006
2,12, 1,12, 0,16, 0.00,60.00,Thursday
135,269482649.7341461
3420,269482649.7341461
3738,32394347.394899577
2,12, 1,12, 0,17, 0.00,60.00,Thursday
135,288082772.684567
3420,288082772.68456686
3738,39571603.12182922
2,12, 1,12, 0,18, 0.00,60.00,Thursday
135,250012292.94343972
3420,250012292.94343972
3738,53929485.31420952
2,12, 1,12, 0,19, 0.00,60.00,Thursday
135,133633297.86649203
3420,133633297.86649203
3738,80494271.90288246
2,12, 1,12, 0,20, 0.00,60.00,Thursday
135,113762212.8909909
3420,113762212.89099091
3738,77935173.34471226
2,12, 1,12, 0,21, 0.00,60.00,Thursday
135,104961832.39056078
3420,104961832.39056082
3738,81597604.60633497
2,12, 1,12, 0,22, 0.00,60.00,Thursday
135,102183960.1996022
3420,102183960.19960223
3738,83974718.49826285
2,12, 1,12, 0,23, 0.00,60.00,Thursday
135,77772390.65670998
3420,77772390.65670998
3738,6791184.0
2,12, 1,12, 0,24, 0.00,60.00,Thursday
135,72442274.24247962
3420,72442274.24247962
3738,6791184.0
2,13, 1,13, 0, 1, 0.00,60.00,Friday
135,57996196.7332391
3420,57996196.7332391
3738,6791184.0