Program Version,EnergyPlus, Version 9.6.0-f420c06a69, YMD=2022.07.05 14:44
1,5,Environment Title[],Latitude[deg],Longitude[deg],Time Zone[],Elevation[m]
2,8,Day of Simulation[],Month[],Day of Month[],DST Indicator[1=yes 0=no],Hour[],StartMinute[],EndMinute[],DayType
3,5,Cumulative Day of Simulation[],Month[],Day of Month[],DST Indicator[1=yes 0=no],DayType  ! When Daily Meters Requested
4,2,Cumulative Days of Simulation[],Month[]  ! When Monthly Meters Requested
5,1,Cumulative Days of Simulation[] ! When Run Period Meters Requested
6,1,Calendar Year of Simulation[] ! When Annual Meters Requested
135,1,Electricity:Facility [J] !Hourly
3420,1,ElectricityNet:Facility [J] !Hourly
3738,1,NaturalGas:Facility [J] !Hourly
End of Data Dictionary
1,RUNPERIOD 1,  35.04,-106.62,  -7.00,1619.00
2,1, 1, 1, 0, 1, 0.00,60.00,Holiday
135,46359074.93593144
3420,46359074.93593143
3738,6791184.0
2,1, 1, 1, 0, 2, 0.00,60.00,Holiday
135,46359235.70955593
3420,46359235.709555924
3738,6791184.0
2,1, 1, 1, 0, 3, 0.00,60.00,Holiday
135,46359235.70955593
3420,46359235.709555924
3738,6791184.0
2,1, 1, 1, 0, 4, 0.00,60.00,Holiday
135,46359235.70955593
3420,46359235.709555924
3738,6791184.0
2,1, 1, 1, 0, 5, 0.00,60.00,Holiday
135,46359235.70955593
3420,46359235.709555924
3738,6791184.0
2,1, 1, 1, 0, 6, 0.00,60.00,Holiday
135,46359235.70955593
3420,46359235.709555924
3738,6791184.0
2,1, 1, 1, 0, 7, 0.00,60.00,Holiday
135,66032185.73006148
3420,66032185.73006148
3738,6791184.0
2,1, 1, 1, 0, 8, 0.00,60.00,Holiday
135,50074623.774579875
3420,50074623.774579875
3738,6791184.0
2,1, 1, 1, 0, 9, 0.00,60.00,Holiday
135,46351708.9331394
3420,46351708.9331394
3738,6791184.0
2,1, 1, 1, 0,10, 0.00,60.00,Holiday
135,46288813.17904917
3420,46288813.179049164
3738,6791184.0
2,1, 1, 1, 0,11, 0.00,60.00,Holiday
135,50009342.363199614
3420,50009342.363199614
3738,6791184.0
2,1, 1, 1, 0,12, 0.00,60.00,Holiday
135,53617732.55272024
3420,53617732.55272024
3738,6791184.0
2,1, 1, 1, 0,13, 0.00,60.00,Holiday
135,53634290.22678877
3420,53634290.22678876
3738,6791184.0
2,1, 1, 1, 0,14, 0.00,60.00,Holiday
135,58165555.4574862
3420,58165555.45748622
3738,6791184.0
2,1, 1, 1, 0,15, 0.00,60.00,Holiday
135,62026144.28259239
3420,62026144.28259239
3738,6791184.0
2,1, 1, 1, 0,16, 0.00,60.00,Holiday
135,62605261.924326405
3420,62605261.924326405
3738,6791184.0
2,1, 1, 1, 0,17, 0.00,60.00,Holiday
135,50224406.74534619
3420,50224406.74534619
3738,6791184.0
2,1, 1, 1, 0,18, 0.00,60.00,Holiday
135,67534969.93162571
3420,67534969.93162571
3738,6791184.0
2,1, 1, 1, 0,19, 0.00,60.00,Holiday
135,57105773.81922845
3420,57105773.81922844
3738,6791184.0
2,1, 1, 1, 0,20, 0.00,60.00,Holiday
135,48904615.70955593
3420,48904615.70955593
3738,6791184.0
2,1, 1, 1, 0,21, 0.00,60.00,Holiday
135,48904615.70955593
3420,48904615.70955593
3738,6791184.0
2,1, 1, 1, 0,22, 0.00,60.00,Holiday
135,48904615.70955593
3420,48904615.70955593
3738,6791184.0
2,1, 1, 1, 0,23, 0.00,60.00,Holiday
135,48904615.70955593
3420,48904615.70955593
3738,6791184.0
2,1, 1, 1, 0,24, 0.00,60.00,Holiday
135,48904615.70955593
3420,48904615.70955593
3738,6791184.0
2,2, 1, 2, 0, 1, 0.00,60.00,Monday
135,57609860.1137362
3420,57609860.1137362
3738,6791184.0
2,2, 1, 2, 0, 2, 0.00,60.00,Monday
135,57609860.1137362
3420,57609860.1137362
3738,6791184.0
2,2, 1, 2, 0, 3, 0.00,60.00,Monday
135,57609860.1137362
3420,57609860.1137362
3738,6791184.0
2,2, 1, 2, 0, 4, 0.00,60.00,Monday
135,57609860.1137362
3420,57609860.1137362
3738,6791184.0
2,2, 1, 2, 0, 5, 0.00,60.00,Monday
135,57609860.1137362
3420,57609860.1137362
3738,6791184.0
2,2, 1, 2, 0, 6, 0.00,60.00,Monday
135,57609860.1137362
3420,57609860.1137362
3738,6791184.0
2,2, 1, 2, 0, 7, 0.00,60.00,Monday
135,137296304.18115827
3420,137296304.18115827
3738,6791184.0
2,2, 1, 2, 0, 8, 0.00,60.00,Monday
135,228091710.0508986
3420,228091710.0508986
3738,147577462.2909266
2,2, 1, 2, 0, 9, 0.00,60.00,Monday
135,310928566.17060184
3420,310928566.17060184
3738,92519461.25435951
2,2, 1, 2, 0,10, 0.00,60.00,Monday
135,270881865.80048376
3420,270881865.8004837
3738,64104549.62432517
2,2, 1, 2, 0,11, 0.00,60.00,Monday
135,266825978.4651965
3420,266825978.46519646
3738,26002213.802575894
2,2, 1, 2, 0,12, 0.00,60.00,Monday
135,286238561.40794075
3420,286238561.40794075
3738,20876803.489152778
2,2, 1, 2, 0,13, 0.00,60.00,Monday
135,288356518.2716734
3420,288356518.2716734
3738,31334359.881758783
2,2, 1, 2, 0,14, 0.00,60.00,Monday
135,302975525.7747885
3420,302975525.7747885
3738,26165959.05339483
2,2, 1, 2, 0,15, 0.00,60.00,Monday
135,294972021.31000483
3420,294972021.3100048
3738,16663111.546087924
2,2, 1, 2, 0,16, 0.00,60.00,Monday
135,299410344.29420304
3420,299410344.29420304
3738,19076358.658423744
2,2, 1, 2, 0,17, 0.00,60.00,Monday
135,298389053.9474881
3420,298389053.94748807
3738,20696594.044879485
2,2, 1, 2, 0,18, 0.00,60.00,Monday
135,237624719.45918894
3420,237624719.45918894
3738,24658594.589504886
2,2, 1, 2, 0,19, 0.00,60.00,Monday
135,131458533.53394982
3420,131458533.5339498
3738,57891981.091293484
2,2, 1, 2, 0,20, 0.00,60.00,Monday
135,116433380.00818448
3420,116433380.00818448
3738,72469446.82990465
2,2, 1, 2, 0,21, 0.00,60.00,Monday
135,107904137.86016025
3420,107904137.86016026
3738,84419336.25488532
2,2, 1, 2, 0,22, 0.00,60.00,Monday
135,105912372.76109348
3420,105912372.7610935
3738,86039928.28257765
2,2, 1, 2, 0,23, 0.00,60.00,Monday
135,77772390.65670998
3420,77772390.65670998
3738,6791184.0
2,2, 1, 2, 0,24, 0.00,60.00,Monday
135,72442274.24247962
3420,72442274.24247962
3738,6791184.0
2,3, 1, 3, 0, 1, 0.00,60.00,Tuesday
135,57996196.7332391
3420,57996196.7332391
3738,6791184.0
2,3, 1, 3, 0, 2, 0.00,60.00,Tuesday
135,57609860.1137362
3420,57609860.1137362
3738,6791184.0
2,3, 1, 3, 0, 3, 0.00,60.00,Tuesday
135,57609860.1137362
3420,57609860.1137362
3738,6791184.0
2,3, 1, 3, 0, 4, 0.00,60.00,Tuesday
135,57609860.1137362
3420,57609860.1137362
3738,6791184.0
2,3, 1, 3, 0, 5, 0.00,60.00,Tuesday
135,57609860.1137362
3420,57609860.1137362
3738,6791184.0
2,3, 1, 3, 0, 6, 0.00,60.00,Tuesday
135,57609860.1137362
3420,57609860.1137362
3738,6791184.0
2,3, 1, 3, 0, 7, 0.00,60.00,Tuesday
135,112102812.71491654
3420,112102812.71491656
3738,6791184.0
2,3, 1, 3, 0, 8, 0.00,60.00,Tuesday
135,192408370.01605332
3420,192408370.0160533
3738,131270974.34457883
2,3, 1, 3, 0, 9, 0.00,60.00,Tuesday
135,311377468.3005356
3420,311377468.30053556
3738,77011765.8614414
2,3, 1, 3, 0,10, 0.00,60.00,Tuesday
135,275991645.6933976
3420,275991645.6933976
3738,37032265.1894799
2,3, 1, 3, 0,11, 0.00,60.00,Tuesday
135,275027993.38438785
3420,275027993.38438785
3738,12356874.77290462
2,3, 1, 3, 0,12, 0.00,60.00,Tuesday
135,293027824.6580732
3420,293027824.6580732
3738,23129488.975600578
2,3, 1, 3, 0,13, 0.00,60.00,Tuesday
135,294632280.35879445
3420,294632280.3587944
3738,31312393.36103994
2,3, 1, 3, 0,14, 0.00,60.00,Tuesday
135,311631511.72635615
3420,311631511.72635615
3738,26179763.885574874
2,3, 1, 3, 0,15, 0.00,60.00,Tuesday
135,297469091.1916596
3420,297469091.1916596
3738,20133738.27406303
2,3, 1, 3, 0,16, 0.00,60.00,Tuesday
135,301048099.2336246
3420,301048099.2336245
3738,15641933.428970817
2,3, 1, 3, 0,17, 0.00,60.00,Tuesday
135,304381337.59458923
3420,304381337.5945892
3738,21131219.676558174
2,3, 1, 3, 0,18, 0.00,60.00,Tuesday
135,241555527.0717467
3420,241555527.07174665
3738,18150591.1484727
2,3, 1, 3, 0,19, 0.00,60.00,Tuesday
135,131866343.2953921
3420,131866343.2953921
3738,35254282.540325396
2,3, 1, 3, 0,20, 0.00,60.00,Tuesday
135,113569604.38930234
3420,113569604.38930234
3738,55618240.98964385
2,3, 1, 3, 0,21, 0.00,60.00,Tuesday
135,103004750.63109705
3420,103004750.63109705
3738,64520228.30643645
2,3, 1, 3, 0,22, 0.00,60.00,Tuesday
135,100314428.85157591
3420,100314428.85157594
3738,93974720.59014836
2,3, 1, 3, 0,23, 0.00,60.00,Tuesday
135,77772390.65670998
3420,77772390.65670998
3738,6791184.0
2,3, 1, 3, 0,24, 0.00,60.00,Tuesday
135,72442274.24247962
3420,72442274.24247962
3738,6791184.0
2,4, 1, 4, 0, 1, 0.00,60.00,Wednesday
135,57996196.7332391
3420,57996196.7332391
3738,6791184.0
2,4, 1, 4, 0, 2, 0.00,60.00,Wednesday
135,57609860.1137362
3420,57609860.1137362
3738,6791184.0
2,4, 1, 4, 0, 3, 0.00,60.00,Wednesday
135,57609860.1137362
3420,57609860.1137362
3738,6791184.0
2,4, 1, 4, 0, 4, 0.00,60.00,Wednesday
135,57609860.1137362
3420,57609860.1137362
3738,6791184.0
2,4, 1, 4, 0, 5, 0.00,60.00,Wednesday
135,57609860.1137362
3420,57609860.1137362
3738,6791184.0
2,4, 1, 4, 0, 6, 0.00,60.00,Wednesday
135,57609860.1137362
3420,57609860.1137362
3738,6791184.0
2,4, 1, 4, 0, 7, 0.00,60.00,Wednesday
135,107774072.52574906
3420,107774072.52574907
3738,6791184.0
2,4, 1, 4, 0, 8, 0.00,60.00,Wednesday
135,190977085.51973185
3420,190977085.51973185
3738,152549075.17350966
2,4, 1, 4, 0, 9, 0.00,60.00,Wednesday
135,309442795.73769474
3420,309442795.7376947
3738,90061261.93808414
2,4, 1, 4, 0,10, 0.00,60.00,Wednesday
135,270429451.7583626
3420,270429451.7583626
3738,61809308.47868821
2,4, 1, 4, 0,11, 0.00,60.00,Wednesday
135,264628704.1230281
3420,264628704.1230281
3738,42705920.408390485
2,4, 1, 4, 0,12, 0.00,60.00,Wednesday
135,278718611.7130605
3420,278718611.7130605
3738,27237330.092575423
2,4, 1, 4, 0,13, 0.00,60.00,Wednesday
135,284511525.7473638
3420,284511525.7473638
3738,31351205.050687008
2,4, 1, 4, 0,14, 0.00,60.00,Wednesday
135,289862557.1310494
3420,289862557.13104934
3738,26189702.826678142
2,4, 1, 4, 0,15, 0.00,60.00,Wednesday
135,275017226.42206335
3420,275017226.4220633
3738,20162358.516311765
2,4, 1, 4, 0,16, 0.00,60.00,Wednesday
135,274464604.4198407
3420,274464604.4198407
3738,15652705.438291695
2,4, 1, 4, 0,17, 0.00,60.00,Wednesday
135,293960285.5736275
3420,293960285.5736275
3738,25498990.853623148
2,4, 1, 4, 0,18, 0.00,60.00,Wednesday
135,251538770.01534092
3420,251538770.01534086
3738,31885314.50222014
2,4, 1, 4, 0,19, 0.00,60.00,Wednesday
135,131244496.47480842
3420,131244496.47480842
3738,62588573.63864532
2,4, 1, 4, 0,20, 0.00,60.00,Wednesday
135,113569604.38930234
3420,113569604.38930234
3738,84199761.2002875
2,4, 1, 4, 0,21, 0.00,60.00,Wednesday
135,103662800.59694704
3420,103662800.59694706
3738,103912575.19797546
2,4, 1, 4, 0,22, 0.00,60.00,Wednesday
135,102262490.78746381
3420,102262490.78746384
3738,120296711.08418094
2,4, 1, 4, 0,23, 0.00,60.00,Wednesday
135,77772390.65670998
3420,77772390.65670998
3738,6791184.0
2,4, 1, 4, 0,24, 0.00,60.00,Wednesday
135,72442274.24247962
3420,72442274.24247962
3738,6791184.0
2,5, 1, 5, 0, 1, 0.00,60.00,Thursday
135,57996196.7332391
3420,57996196.7332391
3738,6791184.0
2,5, 1, 5, 0, 2, 0.00,60.00,Thursday
135,57609860.1137362
3420,57609860.1137362
3738,6791184.0
2,5, 1, 5, 0, 3, 0.00,60.00,Thursday
135,57609860.1137362
3420,57609860.1137362
3738,6791184.0
2,5, 1, 5, 0, 4, 0.00,60.00,Thursday
135,57609860.1137362
3420,57609860.1137362
3738,6791184.0
2,5, 1, 5, 0, 5, 0.00,60.00,Thursday
135,57609860.1137362
3420,57609860.1137362
3738,6791184.0
2,5, 1, 5, 0, 6, 0.00,60.00,Thursday
135,57609860.1137362
3420,57609860.1137362
3738,6791184.0
2,5, 1, 5, 0, 7, 0.00,60.00,Thursday
135,110642496.6100562
3420,110642496.61005622
3738,6791184.0
2,5, 1, 5, 0, 8, 0.00,60.00,Thursday
135,192444117.3089996
3420,192444117.3089996
3738,149395371.0771811
2,5, 1, 5, 0, 9, 0.00,60.00,Thursday
135,311234168.76146287
3420,311234168.76146287
3738,78452266.14123312
2,5, 1, 5, 0,10, 0.00,60.00,Thursday
135,276011811.1183404
3420,276011811.1183403
3738,29567856.758261744
2,5, 1, 5, 0,11, 0.00,60.00,Thursday
135,275379085.450966
3420,275379085.4509659
3738,11823346.10527158
2,5, 1, 5, 0,12, 0.00,60.00,Thursday
135,288579544.2632131
3420,288579544.2632131
3738,20890886.549131922
2,5, 1, 5, 0,13, 0.00,60.00,Thursday
135,289598429.7779232
3420,289598429.77792317
3738,31304416.29256759
2,5, 1, 5, 0,14, 0.00,60.00,Thursday
135,309649325.1586534
3420,309649325.15865344
3738,26188767.14969244
2,5, 1, 5, 0,15, 0.00,60.00,Thursday
135,301631117.09534943
3420,301631117.09534943
3738,20202606.16179288
2,5, 1, 5, 0,16, 0.00,60.00,Thursday
135,303209889.8235718
3420,303209889.82357174
3738,15641237.183304299
2,5, 1, 5, 0,17, 0.00,60.00,Thursday
135,307254603.99081665
3420,307254603.99081665
3738,25322227.440423854
2,5, 1, 5, 0,18, 0.00,60.00,Thursday
135,245479043.8966993
3420,245479043.89669925
3738,13267660.114750916
2,5, 1, 5, 0,19, 0.00,60.00,Thursday
135,132164104.27570331
3420,132164104.27570331
3738,37208407.88441915
2,5, 1, 5, 0,20, 0.00,60.00,Thursday
135,113569604.38930234
3420,113569604.38930234
3738,71081671.01488034
2,5, 1, 5, 0,21, 0.00,60.00,Thursday
135,103199815.35566874
3420,103199815.35566874
3738,90268245.70306078
2,5, 1, 5, 0,22, 0.00,60.00,Thursday
135,100996869.46186541
3420,100996869.46186543
3738,112203182.2046453
2,5, 1, 5, 0,23, 0.00,60.00,Thursday
135,77772390.65670998
3420,77772390.65670998
3738,6791184.0
2,5, 1, 5, 0,24, 0.00,60.00,Thursday
135,72442274.24247962
3420,72442274.24247962
3738,6791184.0
2,6, 1, 6, 0, 1, 0.00,60.00,Friday
135,57996196.7332391
3420,57996196.7332391
3738,6791184.0
2,6, 1, 6, 0, 2, 0.00,60.00,Friday
135,57609860.1137362
3420,57609860.1137362
3738,6791184.0
2,6, 1, 6, 0, 3, 0.00,60.00,Friday
135,57609860.1137362
3420,57609860.1137362
3738,6791184.0
2,6, 1, 6, 0, 4, 0.00,60.00,Friday
135,57609860.1137362
3420,57609860.1137362
3738,6791184.0
2,6, 1, 6, 0, 5, 0.00,60.00,Friday
135,57609860.1137362
3420,57609860.1137362
3738,6791184.0
2,6, 1, 6, 0, 6, 0.00,60.00,Friday
135,57609860.1137362
3420,57609860.1137362
3738,6791184.0
2,6, 1, 6, 0, 7, 0.00,60.00,Friday
135,116559941.72929443
3420,116559941.72929445
3738,6791184.0
2,6, 1, 6, 0, 8, 0.00,60.00,Friday
135,212941208.75877923
3420,212941208.75877923
3738,157301044.87295848
2,6, 1, 6, 0, 9, 0.00,60.00,Friday
135,320865127.3543695
3420,320865127.3543695
3738,101906956.06505063
2,6, 1, 6, 0,10, 0.00,60.00,Friday
135,271692998.55899477
3420,271692998.55899477
3738,89707298.84752925
2,6, 1, 6, 0,11, 0.00,60.00,Friday
135,260713437.0794987
3420,260713437.07949865
3738,72131844.95852713
2,6, 1, 6, 0,12, 0.00,60.00,Friday
135,276303738.3003381
3420,276303738.3003381
3738,55745038.87971831
2,6, 1, 6, 0,13, 0.00,60.00,Friday
135,286437732.81886435
3420,286437732.8188643
3738,28933272.56495342
2,6, 1, 6, 0,14, 0.00,60.00,Friday
135,301173664.08153397
3420,301173664.0815339
3738,29926217.947554655
2,6, 1, 6, 0,15, 0.00,60.00,Friday
135,285364148.64907604
3420,285364148.649076
3738,15682626.653204571
2,6, 1, 6, 0,16, 0.00,60.00,Friday
135,287138597.8784948
3420,287138597.8784948
3738,20079302.274970107
2,6, 1, 6, 0,17, 0.00,60.00,Friday
135,297327908.46039844
3420,297327908.4603984
3738,24369871.96381948
2,6, 1, 6, 0,18, 0.00,60.00,Friday
135,248862685.11655605
3420,248862685.11655605
3738,69790099.90750355
2,6, 1, 6, 0,19, 0.00,60.00,Friday
135,131699228.1276418
3420,131699228.1276418
3738,108306713.3587518
2,6, 1, 6, 0,20, 0.00,60.00,Friday
135,116753262.79102819
3420,116753262.79102817
3738,119155586.66124637
2,6, 1, 6, 0,21, 0.00,60.00,Friday
135,110089162.3143566
3420,110089162.3143566
3738,142640026.1658336
2,6, 1, 6, 0,22, 0.00,60.00,Friday
135,108233123.6961751
3420,108233123.69617513
3738,146237208.01362723
2,6, 1, 6, 0,23, 0.00,60.00,Friday
135,77772390.65670998
3420,77772390.65670998
3738,6791184.0
2,6, 1, 6, 0,24, 0.00,60.00,Friday
135,72442274.24247962
3420,72442274.24247962
3738,6791184.0
2,7, 1, 7, 0, 1, 0.00,60.00,Saturday
135,46745513.81922844
3420,46745513.81922843
3738,6791184.0
2,7, 1, 7, 0, 2, 0.00,60.00,Saturday
135,46359235.70955593
3420,46359235.709555924
3738,6791184.0
2,7, 1, 7, 0, 3, 0.00,60.00,Saturday
135,46359235.70955593
3420,46359235.709555924
3738,6791184.0
2,7, 1, 7, 0, 4, 0.00,60.00,Saturday
135,46359235.70955593
3420,46359235.709555924
3738,6791184.0
2,7, 1, 7, 0, 5, 0.00,60.00,Saturday
135,46359235.70955593
3420,46359235.709555924
3738,6791184.0
2,7, 1, 7, 0, 6, 0.00,60.00,Saturday
135,46359235.70955593
3420,46359235.709555924
3738,6791184.0
2,7, 1, 7, 0, 7, 0.00,60.00,Saturday
135,129971449.10224107
3420,129971449.10224108
3738,6791184.0
2,7, 1, 7, 0, 8, 0.00,60.00,Saturday
135,168212707.82953504
3420,168212707.829535
3738,159806793.03632554
2,7, 1, 7, 0, 9, 0.00,60.00,Saturday
135,145316014.32113028
3420,145316014.32113028
3738,137812975.05764368
2,7, 1, 7, 0,10, 0.00,60.00,Saturday
135,142131696.47838068
3420,142131696.47838068
3738,119753170.59313199
2,7, 1, 7, 0,11, 0.00,60.00,Saturday
135,131615891.36574575
3420,131615891.36574575
3738,87272252.96777666
2,7, 1, 7, 0,12, 0.00,60.00,Saturday
135,137585359.03418136
3420,137585359.03418136
3738,44711326.941496596
2,7, 1, 7, 0,13, 0.00,60.00,Saturday
135,97079938.82028054
3420,97079938.82028054
3738,28756446.990310114
2,7, 1, 7, 0,14, 0.00,60.00,Saturday
135,86985973.22180635
3420,86985973.22180636
3738,30392464.384516813
2,7, 1, 7, 0,15, 0.00,60.00,Saturday
135,81030223.43148935
3420,81030223.43148935
3738,29550224.490025025
2,7, 1, 7, 0,16, 0.00,60.00,Saturday
135,77593562.56711818
3420,77593562.56711818
3738,40908076.58376032
2,7, 1, 7, 0,17, 0.00,60.00,Saturday
135,82271955.97317344
3420,82271955.97317345
3738,54456514.489430696
2,7, 1, 7, 0,18, 0.00,60.00,Saturday
135,83077160.33306564
3420,83077160.33306564
3738,73762026.94658925
2,7, 1, 7, 0,19, 0.00,60.00,Saturday
135,66276703.53612528
3420,66276703.53612528
3738,6791184.0
2,7, 1, 7, 0,20, 0.00,60.00,Saturday
135,49290893.81922844
3420,49290893.81922844
3738,6791184.0
2,7, 1, 7, 0,21, 0.00,60.00,Saturday
135,48904615.70955593
3420,48904615.70955593
3738,6791184.0
2,7, 1, 7, 0,22, 0.00,60.00,Saturday
135,48904615.70955593
3420,48904615.70955593
3738,6791184.0
2,7, 1, 7, 0,23, 0.00,60.00,Saturday
135,48904615.70955593
3420,48904615.70955593
3738,6791184.0
2,7, 1, 7, 0,24, 0.00,60.00,Saturday
135,48904615.70955593
3420,48904615.70955593
3738,6791184.0
2,8, 1, 8, 0, 1, 0.00,60.00,Sunday
135,46359235.70955593
3420,46359235.709555924
3738,6791184.0
2,8, 1, 8, 0, 2, 0.00,60.00,Sunday
135,46359235.70955593
3420,46359235.709555924
3738,6791184.0
2,8, 1, 8, 0, 3, 0.00,60.00,Sunday
135,46359235.70955593
3420,46359235.709555924
3738,6791184.0
2,8, 1, 8, 0, 4, 0.00,60.00,Sunday
135,46359235.70955593
3420,46359235.709555924
3738,6791184.0
2,8, 1, 8, 0, 5, 0.00,60.00,Sunday
135,46359235.70955593
3420,46359235.709555924
3738,6791184.0
2,8, 1, 8, 0, 6, 0.00,60.00,Sunday
135,46359235.70955593
3420,46359235.709555924
3738,6791184.0
2,8, 1, 8, 0, 7, 0.00,60.00,Sunday
135,66032185.73006148
3420,66032185.73006148
3738,6791184.0
2,8, 1, 8, 0, 8, 0.00,60.00,Sunday
135,53323580.330645084
3420,53323580.330645084
3738,6791184.0
2,8, 1, 8, 0, 9, 0.00,60.00,Sunday
135,46344166.24829911
3420,46344166.24829911
3738,6791184.0
2,8, 1, 8, 0,10, 0.00,60.00,Sunday
135,46288812.51597283
3420,46288812.51597283
3738,6791184.0
2,8, 1, 8, 0,11, 0.00,60.00,Sunday
135,46288812.51597283
3420,46288812.51597283
3738,6791184.0
2,8, 1, 8, 0,12, 0.00,60.00,Sunday
135,48294495.38795267
3420,48294495.38795266
3738,6791184.0
2,8, 1, 8, 0,13, 0.00,60.00,Sunday
135,54082223.44578587
3420,54082223.44578587
3738,6791184.0
2,8, 1, 8, 0,14, 0.00,60.00,Sunday
135,53612420.112779744
3420,53612420.11277975
3738,6791184.0
2,8, 1, 8, 0,15, 0.00,60.00,Sunday
135,54149579.83247554
3420,54149579.83247556
3738,6791184.0
2,8, 1, 8, 0,16, 0.00,60.00,Sunday
135,53429170.35579753
3420,53429170.35579754
3738,6791184.0
2,8, 1, 8, 0,17, 0.00,60.00,Sunday
135,49057403.79324109
3420,49057403.7932411
3738,6791184.0
2,8, 1, 8, 0,18, 0.00,60.00,Sunday
135,66276671.30593526
3420,66276671.30593526
3738,6791184.0
2,8, 1, 8, 0,19, 0.00,60.00,Sunday
135,57105773.81922845
3420,57105773.81922844
3738,6791184.0
2,8, 1, 8, 0,20, 0.00,60.00,Sunday
135,48904615.70955593
3420,48904615.70955593
3738,6791184.0
2,8, 1, 8, 0,21, 0.00,60.00,Sunday
135,48904615.70955593
3420,48904615.70955593
3738,6791184.0
2,8, 1, 8, 0,22, 0.00,60.00,Sunday
135,48904615.70955593
3420,48904615.70955593
3738,6791184.0
2,8, 1, 8, 0,23, 0.00,60.00,Sunday
135,48904615.70955593
3420,48904615.70955593
3738,6791184.0
2,8, 1, 8, 0,24, 0.00,60.00,Sunday
135,48904615.70955593
3420,48904615.70955593
3738,6791184.0
2,9, 1, 9, 0, 1, 0.00,60.00,Monday
135,57609860.1137362
3420,57609860.1137362
3738,6791184.0
2,9, 1, 9, 0, 2, 0.00,60.00,Monday
135,57609860.1137362
3420,57609860.1137362
3738,6791184.0
2,9, 1, 9, 0, 3, 0.00,60.00,Monday
135,57609860.1137362
3420,57609860.1137362
3738,6791184.0
2,9, 1, 9, 0, 4, 0.00,60.00,Monday
135,57609860.1137362
3420,57609860.1137362
3738,6791184.0
2,9, 1, 9, 0, 5, 0.00,60.00,Monday
135,57609860.1137362
3420,57609860.1137362
3738,6791184.0
2,9, 1, 9, 0, 6, 0.00,60.00,Monday
135,57609860.1137362
3420,57609860.1137362
3738,6791184.0
2,9, 1, 9, 0, 7, 0.00,60.00,Monday
135,145045311.3092374
3420,145045311.30923736
3738,6791184.0
2,9, 1, 9, 0, 8, 0.00,60.00,Monday
135,237899808.89590493
3420,237899808.89590493
3738,139724147.60018867
2,9, 1, 9, 0, 9, 0.00,60.00,Monday
135,317667185.66892874
3420,317667185.66892874
3738,86439030.80857915
2,9, 1, 9, 0,10, 0.00,60.00,Monday
135,273492351.72532266
3420,273492351.72532266
3738,62057640.463125736
2,9, 1, 9, 0,11, 0.00,60.00,Monday
135,266885609.80713454
3420,266885609.8071345
3738,28375972.924448617
2,9, 1, 9, 0,12, 0.00,60.00,Monday
135,283392916.4314699
3420,283392916.4314699
3738,21086149.085253637
2,9, 1, 9, 0,13, 0.00,60.00,Monday
135,282953489.8970198
3420,282953489.8970198
3738,31377022.083817102
2,9, 1, 9, 0,14, 0.00,60.00,Monday
135,294918890.49948275
3420,294918890.49948275
3738,26217050.343396936
2,9, 1, 9, 0,15, 0.00,60.00,Monday
135,286990869.1547575
3420,286990869.1547575
3738,20170875.607627355
2,9, 1, 9, 0,16, 0.00,60.00,Monday
135,294672063.12189734
3420,294672063.1218973
3738,15657174.928075204
2,9, 1, 9, 0,17, 0.00,60.00,Monday
135,305660089.7437153
3420,305660089.7437152
3738,25337029.94457223
2,9, 1, 9, 0,18, 0.00,60.00,Monday
135,239622981.60459372
3420,239622981.60459372
3738,13933653.223069008
2,9, 1, 9, 0,19, 0.00,60.00,Monday
135,131794774.24570453
3420,131794774.24570453
3738,36917578.03383698
2,9, 1, 9, 0,20, 0.00,60.00,Monday
135,115581679.02077009
3420,115581679.02077009
3738,46447144.21734729
2,9, 1, 9, 0,21, 0.00,60.00,Monday
135,106685002.18505496
3420,106685002.18505499
3738,36536904.358415395
2,9, 1, 9, 0,22, 0.00,60.00,Monday
135,104147030.56018884
3420,104147030.56018886
3738,42747236.676049635
2,9, 1, 9, 0,23, 0.00,60.00,Monday
135,77772390.65670998
3420,77772390.65670998
3738,6791184.0
2,9, 1, 9, 0,24, 0.00,60.00,Monday
135,72442274.24247962
3420,72442274.24247962
3738,6791184.0
2,10, 1,10, 0, 1, 0.00,60.00,Tuesday
135,57996196.7332391
3420,57996196.7332391
3738,6791184.0
2,10, 1,10, 0, 2, 0.00,60.00,Tuesday
135,57609860.1137362
3420,57609860.1137362
3738,6791184.0
2,10, 1,10, 0, 3, 0.00,60.00,Tuesday
135,57609860.1137362
3420,57609860.1137362
3738,6791184.0
2,10, 1,10, 0, 4, 0.00,60.00,Tuesday
135,57609860.1137362
3420,57609860.1137362
3738,6791184.0
2,10, 1,10, 0, 5, 0.00,60.00,Tuesday
135,57609860.1137362
3420,57609860.1137362
3738,6791184.0
2,10, 1,10, 0, 6, 0.00,60.00,Tuesday
135,57609860.1137362
3420,57609860.1137362
3738,6791184.0
2,10, 1,10, 0, 7, 0.00,60.00,Tuesday
135,118671388.19684128
3420,118671388.19684131
3738,6791184.0
2,10, 1,10, 0, 8, 0.00,60.00,Tuesday
135,204917828.46141592
3420,204917828.4614159
3738,153323175.74188405
2,10, 1,10, 0, 9, 0.00,60.00,Tuesday
135,308471058.6783337
3420,308471058.67833376
3738,99197062.59517778
2,10, 1,10, 0,10, 0.00,60.00,Tuesday
135,267584354.08670086
3420,267584354.08670086
3738,79092712.69292101
2,10, 1,10, 0,11, 0.00,60.00,Tuesday
135,259545106.87714207
3420,259545106.87714207
3738,67584574.75403634
2,10, 1,10, 0,12, 0.00,60.00,Tuesday
135,269294382.5325546
3420,269294382.53255457
3738,78682384.69205345
2,10, 1,10, 0,13, 0.00,60.00,Tuesday
135,289984953.5469998
3420,289984953.5469998
3738,61392331.38433413
2,10, 1,10, 0,14, 0.00,60.00,Tuesday
135,284893902.19881684
3420,284893902.19881684
3738,39340549.45952793
2,10, 1,10, 0,15, 0.00,60.00,Tuesday
135,276409199.51077616
3420,276409199.5107761
3738,15843233.393429317
2,10, 1,10, 0,16, 0.00,60.00,Tuesday
135,278746714.6006934
3420,278746714.60069335
3738,17706792.403556228
2,10, 1,10, 0,17, 0.00,60.00,Tuesday
135,290854318.8681587
3420,290854318.8681586
3738,23318984.39505708
2,10, 1,10, 0,18, 0.00,60.00,Tuesday
135,249535462.27699724
3420,249535462.27699724
3738,41107435.67509343
2,10, 1,10, 0,19, 0.00,60.00,Tuesday
135,131273448.95977657
3420,131273448.95977655
3738,83158832.1217076
2,10, 1,10, 0,20, 0.00,60.00,Tuesday
135,115173253.17658132
3420,115173253.17658132
3738,86522952.93534105
2,10, 1,10, 0,21, 0.00,60.00,Tuesday
135,106829961.16693285
3420,106829961.16693285
3738,95771660.16200906
2,10, 1,10, 0,22, 0.00,60.00,Tuesday
135,106214067.43230379
3420,106214067.43230383
3738,110042855.44219333
2,10, 1,10, 0,23, 0.00,60.00,Tuesday
135,77772390.65670998
3420,77772390.65670998
3738,6791184.0
2,10, 1,10, 0,24, 0.00,60.00,Tuesday
135,72442274.24247962
3420,72442274.24247962
3738,6791184.0
2,11, 1,11, 0, 1, 0.00,60.00,Wednesday
135,57996196.7332391
3420,57996196.7332391
3738,6791184.0
2,11, 1,11, 0, 2, 0.00,60.00,Wednesday
135,57609860.1137362
3420,57609860.1137362
3738,6791184.0
2,11, 1,11, 0, 3, 0.00,60.00,Wednesday
135,57609860.1137362
3420,57609860.1137362
3738,6791184.0
2,11, 1,11, 0, 4, 0.00,60.00,Wednesday
135,57609860.1137362
3420,57609860.1137362
3738,6791184.0
2,11, 1,11, 0, 5, 0.00,60.00,Wednesday
135,57609860.1137362
3420,57609860.1137362
3738,6791184.0
2,11, 1,11, 0, 6, 0.00,60.00,Wednesday
135,57609860.1137362
3420,57609860.1137362
3738,6791184.0
2,11, 1,11, 0, 7, 0.00,60.00,Wednesday
135,112362906.16739187
3420,112362906.16739187
3738,6791184.0
2,11, 1,11, 0, 8, 0.00,60.00,Wednesday
135,194744887.1992263
3420,194744887.19922632
3738,96343519.65084349
2,11, 1,11, 0, 9, 0.00,60.00,Wednesday
135,305383954.95258176
3420,305383954.9525818
3738,65593029.15400568
2,11, 1,11, 0,10, 0.00,60.00,Wednesday
135,267083187.03674582
3420,267083187.0367458
3738,52250117.530372076
2,11, 1,11, 0,11, 0.00,60.00,Wednesday
135,260486557.7820451
3420,260486557.7820451
3738,24502329.936592877
2,11, 1,11, 0,12, 0.00,60.00,Wednesday
135,269256338.94025755
3420,269256338.9402575
3738,31950617.877180524
2,11, 1,11, 0,13, 0.00,60.00,Wednesday
135,276350725.49930507
3420,276350725.49930507
3738,46759440.15824188
2,11, 1,11, 0,14, 0.00,60.00,Wednesday
135,273255657.11599076
3420,273255657.1159908
3738,35609099.824277416
2,11, 1,11, 0,15, 0.00,60.00,Wednesday
135,259287877.6521732
3420,259287877.65217316
3738,25668484.181844886
2,11, 1,11, 0,16, 0.00,60.00,Wednesday
135,259626942.3581044
3420,259626942.35810438
3738,33082998.650865436
2,11, 1,11, 0,17, 0.00,60.00,Wednesday
135,276787076.74983543
3420,276787076.7498354
3738,60617837.20186521
2,11, 1,11, 0,18, 0.00,60.00,Wednesday
135,242736925.29907256
3420,242736925.2990726
3738,63447705.50267868
2,11, 1,11, 0,19, 0.00,60.00,Wednesday
135,131995297.5129463
3420,131995297.5129463
3738,93768005.7916037
2,11, 1,11, 0,20, 0.00,60.00,Wednesday
135,114914785.74960235
3420,114914785.74960235
3738,102384360.6779426
2,11, 1,11, 0,21, 0.00,60.00,Wednesday
135,107030263.27378815
3420,107030263.2737882
3738,101750501.14170763
2,11, 1,11, 0,22, 0.00,60.00,Wednesday
135,105719763.76727009
3420,105719763.76727012
3738,112877214.52613091
2,11, 1,11, 0,23, 0.00,60.00,Wednesday
135,77772390.65670998
3420,77772390.65670998
3738,6791184.0
2,11, 1,11, 0,24, 0.00,60.00,Wednesday
135,72442274.24247962
3420,72442274.24247962
3738,6791184.0
2,12, 1,12, 0, 1, 0.00,60.00,Thursday
135,57996196.7332391
3420,57996196.7332391
3738,6791184.0
2,12, 1,12, 0, 2, 0.00,60.00,Thursday
135,57609860.1137362
3420,57609860.1137362
3738,6791184.0
2,12, 1,12, 0, 3, 0.00,60.00,Thursday
135,57609860.1137362
3420,57609860.1137362
3738,6791184.0
2,12, 1,12, 0, 4, 0.00,60.00,Thursday
135,57609860.1137362
3420,57609860.1137362
3738,6791184.0
2,12, 1,12, 0, 5, 0.00,60.00,Thursday
135,57609860.1137362
3420,57609860.1137362
3738,6791184.0
2,12, 1,12, 0, 6, 0.00,60.00,Thursday
135,57609860.1137362
3420,57609860.1137362
3738,6791184.0
2,12, 1,12, 0, 7, 0.00,60.00,Thursday
135,114714326.94225016
3420,114714326.94225016
3738,6791184.0
2,12, 1,12, 0, 8, 0.00,60.00,Thursday
135,198582474.46583608
3420,198582474.46583608
3738,142864371.77030474
2,12, 1,12, 0, 9, 0.00,60.00,Thursday
135,311377342.64575887
3420,311377342.64575887
3738,93170439.36517707
2,12, 1,12, 0,10, 0.00,60.00,Thursday
135,268071084.80970234
3420,268071084.8097023
3738,80004376.00162226
2,12, 1,12, 0,11, 0.00,60.00,Thursday
135,261116404.29686373
3420,261116404.29686373
3738,64075303.20705977
2,12, 1,12, 0,12, 0.00,60.00,Thursday
135,273164628.38190144
3420,273164628.38190144
3738,59036711.45334166
2,12, 1,12, 0,13, 0.00,60.00,Thursday
135,292652097.6355295
3420,292652097.6355295
3738,52300430.44294537
2,12, 1,12, 0,14, 0.00,60.00,Thursday
135,283898142.83247554
3420,283898142.83247554
3738,47860528.076018915
2,12, 1,12, 0,15, 0.00,60.00,Thursday
135,268598764.9296284
3420,268598764.9296284
3738,28561100.7633991
2,12, 1,12, 0,16, 0.00,60.00,Thursday
135,268432191.64823988
3420,268432191.64823985
3738,36223464.58522584
2,12, 1,12, 0,17, 0.00,60.00,Thursday
135,287041953.28102154
3420,287041953.28102154
3738,43091172.34719892
2,12, 1,12, 0,18, 0.00,60.00,Thursday
135,249089919.23658505
3420,249089919.23658508
3738,56534310.9925696
2,12, 1,12, 0,19, 0.00,60.00,Thursday
135,134389247.3027513
3420,134389247.3027513
3738,84927187.90932795
2,12, 1,12, 0,20, 0.00,60.00,Thursday
135,114383626.04657528
3420,114383626.04657528
3738,82015665.81112365
2,12, 1,12, 0,21, 0.00,60.00,Thursday
135,106053900.61844599
3420,106053900.61844599
3738,85586156.55679534
2,12, 1,12, 0,22, 0.00,60.00,Thursday
135,103694027.10294199
3420,103694027.102942
3738,88793836.03263384
2,12, 1,12, 0,23, 0.00,60.00,Thursday
135,77772390.65670998
3420,77772390.65670998
3738,6791184.0
2,12, 1,12, 0,24, 0.00,60.00,Thursday
135,72442274.24247962
3420,72442274.24247962
3738,6791184.0
2,13, 1,13, 0, 1, 0.00,60.00,Friday
135,57996196.7332391
3420,57996196.7332391