Program Version,EnergyPlus, Version 9.6.0-f420c06a69, YMD=2022.07.05 14:39
1,5,Environment Title[],Latitude[deg],Longitude[deg],Time Zone[],Elevation[m]
2,8,Day of Simulation[],Month[],Day of Month[],DST Indicator[1=yes 0=no],Hour[],StartMinute[],EndMinute[],DayType
3,5,Cumulative Day of Simulation[],Month[],Day of Month[],DST Indicator[1=yes 0=no],DayType  ! When Daily Meters Requested
4,2,Cumulative Days of Simulation[],Month[]  ! When Monthly Meters Requested
5,1,Cumulative Days of Simulation[] ! When Run Period Meters Requested
6,1,Calendar Year of Simulation[] ! When Annual Meters Requested
135,1,Electricity:Facility [J] !Hourly
3420,1,ElectricityNet:Facility [J] !Hourly
3738,1,NaturalGas:Facility [J] !Hourly
End of Data Dictionary
1,RUNPERIOD 1,  35.04,-106.62,  -7.00,1619.00
2,1, 1, 1, 0, 1, 0.00,60.00,Holiday
135,46359074.93593144
3420,46359074.93593143
3738,6791184.0
2,1, 1, 1, 0, 2, 0.00,60.00,Holiday
135,46359235.70955593
3420,46359235.709555924
3738,6791184.0
2,1, 1, 1, 0, 3, 0.00,60.00,Holiday
135,46359235.70955593
3420,46359235.709555924
3738,6791184.0
2,1, 1, 1, 0, 4, 0.00,60.00,Holiday
135,46359235.70955593
3420,46359235.709555924
3738,6791184.0
2,1, 1, 1, 0, 5, 0.00,60.00,Holiday
135,46359235.70955593
3420,46359235.709555924
3738,6791184.0
2,1, 1, 1, 0, 6, 0.00,60.00,Holiday
135,46359235.70955593
3420,46359235.709555924
3738,6791184.0
2,1, 1, 1, 0, 7, 0.00,60.00,Holiday
135,66032185.73006148
3420,66032185.73006148
3738,6791184.0
2,1, 1, 1, 0, 8, 0.00,60.00,Holiday
135,50074623.774579875
3420,50074623.774579875
3738,6791184.0
2,1, 1, 1, 0, 9, 0.00,60.00,Holiday
135,46351708.9331394
3420,46351708.9331394
3738,6791184.0
2,1, 1, 1, 0,10, 0.00,60.00,Holiday
135,46288813.17904917
3420,46288813.179049164
3738,6791184.0
2,1, 1, 1, 0,11, 0.00,60.00,Holiday
135,50009342.363199614
3420,50009342.363199614
3738,6791184.0
2,1, 1, 1, 0,12, 0.00,60.00,Holiday
135,53617732.55272024
3420,53617732.55272024
3738,6791184.0
2,1, 1, 1, 0,13, 0.00,60.00,Holiday
135,53634290.22678877
3420,53634290.22678876
3738,6791184.0
2,1, 1, 1, 0,14, 0.00,60.00,Holiday
135,58165555.4574862
3420,58165555.45748622
3738,6791184.0
2,1, 1, 1, 0,15, 0.00,60.00,Holiday
135,62026144.28259239
3420,62026144.28259239
3738,6791184.0
2,1, 1, 1, 0,16, 0.00,60.00,Holiday
135,62605261.924326405
3420,62605261.924326405
3738,6791184.0
2,1, 1, 1, 0,17, 0.00,60.00,Holiday
135,50224406.74534619
3420,50224406.74534619
3738,6791184.0
2,1, 1, 1, 0,18, 0.00,60.00,Holiday
135,67534969.93162571
3420,67534969.93162571
3738,6791184.0
2,1, 1, 1, 0,19, 0.00,60.00,Holiday
135,57105773.81922845
3420,57105773.81922844
3738,6791184.0
2,1, 1, 1, 0,20, 0.00,60.00,Holiday
135,48904615.70955593
3420,48904615.70955593
3738,6791184.0
2,1, 1, 1, 0,21, 0.00,60.00,Holiday
135,48904615.70955593
3420,48904615.70955593
3738,6791184.0
2,1, 1, 1, 0,22, 0.00,60.00,Holiday
135,48904615.70955593
3420,48904615.70955593
3738,6791184.0
2,1, 1, 1, 0,23, 0.00,60.00,Holiday
135,48904615.70955593
3420,48904615.70955593
3738,6791184.0
2,1, 1, 1, 0,24, 0.00,60.00,Holiday
135,48904615.70955593
3420,48904615.70955593
3738,6791184.0
2,2, 1, 2, 0, 1, 0.00,60.00,Monday
135,57609860.1137362
3420,57609860.1137362
3738,6791184.0
2,2, 1, 2, 0, 2, 0.00,60.00,Monday
135,57609860.1137362
3420,57609860.1137362
3738,6791184.0
2,2, 1, 2, 0, 3, 0.00,60.00,Monday
135,57609860.1137362
3420,57609860.1137362
3738,6791184.0
2,2, 1, 2, 0, 4, 0.00,60.00,Monday
135,57609860.1137362
3420,57609860.1137362
3738,6791184.0
2,2, 1, 2, 0, 5, 0.00,60.00,Monday
135,57609860.1137362
3420,57609860.1137362
3738,6791184.0
2,2, 1, 2, 0, 6, 0.00,60.00,Monday
135,57609860.1137362
3420,57609860.1137362
3738,6791184.0
2,2, 1, 2, 0, 7, 0.00,60.00,Monday
135,137296304.18115827
3420,137296304.18115827
3738,6791184.0
2,2, 1, 2, 0, 8, 0.00,60.00,Monday
135,228091710.0508986
3420,228091710.0508986
3738,147577462.2909266
2,2, 1, 2, 0, 9, 0.00,60.00,Monday
135,310928566.17060184
3420,310928566.17060184
3738,92519461.25435951
2,2, 1, 2, 0,10, 0.00,60.00,Monday
135,270881865.80048376
3420,270881865.8004837
3738,64104549.62432517
2,2, 1, 2, 0,11, 0.00,60.00,Monday
135,266825978.4651965
3420,266825978.46519646
3738,26002213.802575894
2,2, 1, 2, 0,12, 0.00,60.00,Monday
135,286238561.40794075
3420,286238561.40794075
3738,20876803.489152778
2,2, 1, 2, 0,13, 0.00,60.00,Monday
135,288356518.2716734
3420,288356518.2716734
3738,31334359.881758783
2,2, 1, 2, 0,14, 0.00,60.00,Monday
135,302975525.7747885
3420,302975525.7747885
3738,26165959.05339483
2,2, 1, 2, 0,15, 0.00,60.00,Monday
135,294972021.31000483
3420,294972021.3100048
3738,16663111.546087924
2,2, 1, 2, 0,16, 0.00,60.00,Monday
135,299410344.29420304
3420,299410344.29420304
3738,19076358.658423744
2,2, 1, 2, 0,17, 0.00,60.00,Monday
135,298389053.9474881
3420,298389053.94748807
3738,20696594.044879485
2,2, 1, 2, 0,18, 0.00,60.00,Monday
135,237624719.45918894
3420,237624719.45918894
3738,24658594.589504886
2,2, 1, 2, 0,19, 0.00,60.00,Monday
135,131458533.53394982
3420,131458533.5339498
3738,57891981.091293484
2,2, 1, 2, 0,20, 0.00,60.00,Monday
135,116433380.00818448
3420,116433380.00818448
3738,72469446.82990465
2,2, 1, 2, 0,21, 0.00,60.00,Monday
135,107904137.86016025
3420,107904137.86016026
3738,84419336.25488532
2,2, 1, 2, 0,22, 0.00,60.00,Monday
135,105912372.76109348
3420,105912372.7610935
3738,86039928.28257765
2,2, 1, 2, 0,23, 0.00,60.00,Monday
135,77772390.65670998
3420,77772390.65670998
3738,6791184.0
2,2, 1, 2, 0,24, 0.00,60.00,Monday
135,72442274.24247962
3420,72442274.24247962
3738,6791184.0
2,3, 1, 3, 0, 1, 0.00,60.00,Tuesday
135,57996196.7332391
3420,57996196.7332391
3738,6791184.0
2,3, 1, 3, 0, 2, 0.00,60.00,Tuesday
135,57609860.1137362
3420,57609860.1137362
3738,6791184.0
2,3, 1, 3, 0, 3, 0.00,60.00,Tuesday
135,57609860.1137362
3420,57609860.1137362
3738,6791184.0
2,3, 1, 3, 0, 4, 0.00,60.00,Tuesday
135,57609860.1137362
3420,57609860.1137362
3738,6791184.0
2,3, 1, 3, 0, 5, 0.00,60.00,Tuesday
135,57609860.1137362
3420,57609860.1137362
3738,6791184.0
2,3, 1, 3, 0, 6, 0.00,60.00,Tuesday
135,57609860.1137362
3420,57609860.1137362
3738,6791184.0
2,3, 1, 3, 0, 7, 0.00,60.00,Tuesday
135,112102812.71491654
3420,112102812.71491656
3738,6791184.0
2,3, 1, 3, 0, 8, 0.00,60.00,Tuesday
135,192408370.01605332
3420,192408370.0160533
3738,131270974.34457883
2,3, 1, 3, 0, 9, 0.00,60.00,Tuesday
135,311377468.3005356
3420,311377468.30053556
3738,77011765.8614414
2,3, 1, 3, 0,10, 0.00,60.00,Tuesday
135,275991645.6933976
3420,275991645.6933976
3738,37032265.1894799
2,3, 1, 3, 0,11, 0.00,60.00,Tuesday
135,275027993.38438785
3420,275027993.38438785
3738,12356874.77290462
2,3, 1, 3, 0,12, 0.00,60.00,Tuesday
135,293027824.6580732
3420,293027824.6580732
3738,23129488.975600578
2,3, 1, 3, 0,13, 0.00,60.00,Tuesday
135,294632280.35879445
3420,294632280.3587944
3738,31312393.36103994
2,3, 1, 3, 0,14, 0.00,60.00,Tuesday
135,311631511.72635615
3420,311631511.72635615
3738,26179763.885574874
2,3, 1, 3, 0,15, 0.00,60.00,Tuesday
135,297469091.1916596
3420,297469091.1916596
3738,20133738.27406303
2,3, 1, 3, 0,16, 0.00,60.00,Tuesday
135,301048099.2336246
3420,301048099.2336245
3738,15641933.428970817
2,3, 1, 3, 0,17, 0.00,60.00,Tuesday
135,304381337.59458923
3420,304381337.5945892
3738,21131219.676558174
2,3, 1, 3, 0,18, 0.00,60.00,Tuesday
135,241555527.0717467
3420,241555527.07174665
3738,18150591.1484727
2,3, 1, 3, 0,19, 0.00,60.00,Tuesday
135,131866343.2953921
3420,131866343.2953921
3738,35254282.540325396
2,3, 1, 3, 0,20, 0.00,60.00,Tuesday
135,113569604.38930234
3420,113569604.38930234
3738,55618240.98964385
2,3, 1, 3, 0,21, 0.00,60.00,Tuesday
135,103004750.63109705
3420,103004750.63109705
3738,64520228.30643645
2,3, 1, 3, 0,22, 0.00,60.00,Tuesday
135,100314428.85157591
3420,100314428.85157594
3738,93974720.59014836
2,3, 1, 3, 0,23, 0.00,60.00,Tuesday
135,77772390.65670998
3420,77772390.65670998
3738,6791184.0
2,3, 1, 3, 0,24, 0.00,60.00,Tuesday
135,72442274.24247962
3420,72442274.24247962
3738,6791184.0
2,4, 1, 4, 0, 1, 0.00,60.00,Wednesday
135,57996196.7332391
3420,57996196.7332391
3738,6791184.0
2,4, 1, 4, 0, 2, 0.00,60.00,Wednesday
135,57609860.1137362
3420,57609860.1137362
3738,6791184.0
2,4, 1, 4, 0, 3, 0.00,60.00,Wednesday
135,57609860.1137362
3420,57609860.1137362
3738,6791184.0
2,4, 1, 4, 0, 4, 0.00,60.00,Wednesday
135,57609860.1137362
3420,57609860.1137362
3738,6791184.0
2,4, 1, 4, 0, 5, 0.00,60.00,Wednesday
135,57609860.1137362
3420,57609860.1137362
3738,6791184.0
2,4, 1, 4, 0, 6, 0.00,60.00,Wednesday
135,57609860.1137362
3420,57609860.1137362
3738,6791184.0
2,4, 1, 4, 0, 7, 0.00,60.00,Wednesday
135,107576892.75854939
3420,107576892.75854939
3738,6791184.0
2,4, 1, 4, 0, 8, 0.00,60.00,Wednesday
135,190541880.75249916
3420,190541880.7524992
3738,150406779.675092
2,4, 1, 4, 0, 9, 0.00,60.00,Wednesday
135,309449313.7303041
3420,309449313.7303041
3738,88547196.24030137
2,4, 1, 4, 0,10, 0.00,60.00,Wednesday
135,270639690.8476038
3420,270639690.84760374
3738,60129012.456022695
2,4, 1, 4, 0,11, 0.00,60.00,Wednesday
135,264888712.1386522
3420,264888712.13865218
3738,40894895.94714005
2,4, 1, 4, 0,12, 0.00,60.00,Wednesday
135,278975227.7901555
3420,278975227.7901554
3738,26070291.999747016
2,4, 1, 4, 0,13, 0.00,60.00,Wednesday
135,284664586.2030087
3420,284664586.2030087
3738,31351101.684788533
2,4, 1, 4, 0,14, 0.00,60.00,Wednesday
135,290160843.2790584
3420,290160843.2790584
3738,26188805.012103193
2,4, 1, 4, 0,15, 0.00,60.00,Wednesday
135,275414269.20879954
3420,275414269.2087995
3738,20162411.777556807
2,4, 1, 4, 0,16, 0.00,60.00,Wednesday
135,275076804.5838112
3420,275076804.5838112
3738,15652778.910181906
2,4, 1, 4, 0,17, 0.00,60.00,Wednesday
135,294685287.480015
3420,294685287.480015
3738,25318540.590121612
2,4, 1, 4, 0,18, 0.00,60.00,Wednesday
135,251081915.1255337
3420,251081915.12553373
3738,19138367.142548684
2,4, 1, 4, 0,19, 0.00,60.00,Wednesday
135,131918321.67941013
3420,131918321.67941013
3738,35878432.6511378
2,4, 1, 4, 0,20, 0.00,60.00,Wednesday
135,113569604.38930234
3420,113569604.38930234
3738,50805087.33065738
2,4, 1, 4, 0,21, 0.00,60.00,Wednesday
135,102910895.06207252
3420,102910895.06207252
3738,64419372.911116764
2,4, 1, 4, 0,22, 0.00,60.00,Wednesday
135,98958307.3245269
3420,98958307.32452692
3738,76076382.83514477
2,4, 1, 4, 0,23, 0.00,60.00,Wednesday
135,77772390.65670998
3420,77772390.65670998
3738,6791184.0
2,4, 1, 4, 0,24, 0.00,60.00,Wednesday
135,72442274.24247962
3420,72442274.24247962
3738,6791184.0
2,5, 1, 5, 0, 1, 0.00,60.00,Thursday
135,57996196.7332391
3420,57996196.7332391
3738,6791184.0
2,5, 1, 5, 0, 2, 0.00,60.00,Thursday
135,57609860.1137362
3420,57609860.1137362
3738,6791184.0
2,5, 1, 5, 0, 3, 0.00,60.00,Thursday
135,57609860.1137362
3420,57609860.1137362
3738,6791184.0
2,5, 1, 5, 0, 4, 0.00,60.00,Thursday
135,57609860.1137362
3420,57609860.1137362
3738,6791184.0
2,5, 1, 5, 0, 5, 0.00,60.00,Thursday
135,57609860.1137362
3420,57609860.1137362
3738,6791184.0
2,5, 1, 5, 0, 6, 0.00,60.00,Thursday
135,57609860.1137362
3420,57609860.1137362
3738,6791184.0
2,5, 1, 5, 0, 7, 0.00,60.00,Thursday
135,100540264.6100599
3420,100540264.6100599
3738,6791184.0
2,5, 1, 5, 0, 8, 0.00,60.00,Thursday
135,178954551.88311347
3420,178954551.8831135
3738,123285034.25296596
2,5, 1, 5, 0, 9, 0.00,60.00,Thursday
135,310136816.8880587
3420,310136816.8880587
3738,66329294.22208877
2,5, 1, 5, 0,10, 0.00,60.00,Thursday
135,278360100.35682887
3420,278360100.3568288
3738,21080471.083130717
2,5, 1, 5, 0,11, 0.00,60.00,Thursday
135,277735595.08511245
3420,277735595.08511245
3738,11332709.487686254
2,5, 1, 5, 0,12, 0.00,60.00,Thursday
135,290363172.61091524
3420,290363172.6109152
3738,20890776.65100523
2,5, 1, 5, 0,13, 0.00,60.00,Thursday
135,290383496.06790555
3420,290383496.0679054
3738,31320862.794398677
2,5, 1, 5, 0,14, 0.00,60.00,Thursday
135,312031560.82243186
3420,312031560.8224319
3738,26189012.882331092
2,5, 1, 5, 0,15, 0.00,60.00,Thursday
135,305360362.8043003
3420,305360362.80430025
3738,20203937.4379976
2,5, 1, 5, 0,16, 0.00,60.00,Thursday
135,309134384.3176228
3420,309134384.3176228
3738,15641483.443675425
2,5, 1, 5, 0,17, 0.00,60.00,Thursday
135,312530667.7377373
3420,312530667.7377372
3738,25322050.871301457
2,5, 1, 5, 0,18, 0.00,60.00,Thursday
135,244648609.28732237
3420,244648609.28732237
3738,11106387.371936932
2,5, 1, 5, 0,19, 0.00,60.00,Thursday
135,132391847.99014354
3420,132391847.99014355
3738,18505008.68051777
2,5, 1, 5, 0,20, 0.00,60.00,Thursday
135,113569604.38930234
3420,113569604.38930234
3738,38146223.92965206
2,5, 1, 5, 0,21, 0.00,60.00,Thursday
135,102910895.06207252
3420,102910895.06207252
3738,50467036.2134704
2,5, 1, 5, 0,22, 0.00,60.00,Thursday
135,98323640.17922857
3420,98323640.17922859
3738,64202577.09540045
2,5, 1, 5, 0,23, 0.00,60.00,Thursday
135,77772390.65670998
3420,77772390.65670998
3738,6791184.0
2,5, 1, 5, 0,24, 0.00,60.00,Thursday
135,72442274.24247962
3420,72442274.24247962
3738,6791184.0
2,6, 1, 6, 0, 1, 0.00,60.00,Friday
135,57996196.7332391
3420,57996196.7332391
3738,6791184.0
2,6, 1, 6, 0, 2, 0.00,60.00,Friday
135,57609860.1137362
3420,57609860.1137362
3738,6791184.0
2,6, 1, 6, 0, 3, 0.00,60.00,Friday
135,57609860.1137362
3420,57609860.1137362
3738,6791184.0
2,6, 1, 6, 0, 4, 0.00,60.00,Friday
135,57609860.1137362
3420,57609860.1137362
3738,6791184.0
2,6, 1, 6, 0, 5, 0.00,60.00,Friday
135,57609860.1137362
3420,57609860.1137362
3738,6791184.0
2,6, 1, 6, 0, 6, 0.00,60.00,Friday
135,57609860.1137362
3420,57609860.1137362
3738,6791184.0
2,6, 1, 6, 0, 7, 0.00,60.00,Friday
135,104629562.11558671
3420,104629562.11558674
3738,6791184.0
2,6, 1, 6, 0, 8, 0.00,60.00,Friday
135,191120435.23065484
3420,191120435.2306548
3738,128451368.74585739
2,6, 1, 6, 0, 9, 0.00,60.00,Friday
135,313420907.153823
3420,313420907.153823
3738,89605541.99113986
2,6, 1, 6, 0,10, 0.00,60.00,Friday
135,269651138.878505
3420,269651138.87850493
3738,82131827.00058796
2,6, 1, 6, 0,11, 0.00,60.00,Friday
135,261911608.00430155
3420,261911608.0043015
3738,71719922.69315544
2,6, 1, 6, 0,12, 0.00,60.00,Friday
135,279274055.90187585
3420,279274055.90187573
3738,49177180.13297804
2,6, 1, 6, 0,13, 0.00,60.00,Friday
135,288548433.1127908
3420,288548433.11279076
3738,28288775.960861765
2,6, 1, 6, 0,14, 0.00,60.00,Friday
135,301533332.4126595
3420,301533332.4126595
3738,27517271.85458538
2,6, 1, 6, 0,15, 0.00,60.00,Friday
135,288585115.30425173
3420,288585115.30425173
3738,18953118.58615169
2,6, 1, 6, 0,16, 0.00,60.00,Friday
135,291276426.53345937
3420,291276426.5334593
3738,15649025.414925547
2,6, 1, 6, 0,17, 0.00,60.00,Friday
135,301571960.71641266
3420,301571960.7164126
3738,25631535.651905566
2,6, 1, 6, 0,18, 0.00,60.00,Friday
135,250651399.03733277
3420,250651399.03733283
3738,54755632.34664837
2,6, 1, 6, 0,19, 0.00,60.00,Friday
135,131487391.11751917
3420,131487391.11751917
3738,82839456.53958383
2,6, 1, 6, 0,20, 0.00,60.00,Friday
135,113693947.08036852
3420,113693947.08036852
3738,86019487.1548967
2,6, 1, 6, 0,21, 0.00,60.00,Friday
135,105048251.81661211
3420,105048251.81661212
3738,103336190.86382249
2,6, 1, 6, 0,22, 0.00,60.00,Friday
135,101850704.06454672
3420,101850704.06454675
3738,102039550.91275617
2,6, 1, 6, 0,23, 0.00,60.00,Friday
135,77772390.65670998
3420,77772390.65670998
3738,6791184.0
2,6, 1, 6, 0,24, 0.00,60.00,Friday
135,72442274.24247962
3420,72442274.24247962
3738,6791184.0
2,7, 1, 7, 0, 1, 0.00,60.00,Saturday
135,46745513.81922844
3420,46745513.81922843
3738,6791184.0
2,7, 1, 7, 0, 2, 0.00,60.00,Saturday
135,46359235.70955593
3420,46359235.709555924
3738,6791184.0
2,7, 1, 7, 0, 3, 0.00,60.00,Saturday
135,46359235.70955593
3420,46359235.709555924
3738,6791184.0
2,7, 1, 7, 0, 4, 0.00,60.00,Saturday
135,46359235.70955593
3420,46359235.709555924
3738,6791184.0
2,7, 1, 7, 0, 5, 0.00,60.00,Saturday
135,46359235.70955593
3420,46359235.709555924
3738,6791184.0
2,7, 1, 7, 0, 6, 0.00,60.00,Saturday
135,46359235.70955593
3420,46359235.709555924
3738,6791184.0
2,7, 1, 7, 0, 7, 0.00,60.00,Saturday
135,114213335.73441978
3420,114213335.7344198
3738,6791184.0
2,7, 1, 7, 0, 8, 0.00,60.00,Saturday
135,145266279.33852267
3420,145266279.33852264
3738,136706248.76714444
2,7, 1, 7, 0, 9, 0.00,60.00,Saturday
135,135848118.36507767
3420,135848118.36507767
3738,119717093.65991393
2,7, 1, 7, 0,10, 0.00,60.00,Saturday
135,136632711.93667173
3420,136632711.93667176
3738,106479037.65969512
2,7, 1, 7, 0,11, 0.00,60.00,Saturday
135,129020166.14406933
3420,129020166.14406931
3738,78866156.43414347
2,7, 1, 7, 0,12, 0.00,60.00,Saturday
135,137634491.57139352
3420,137634491.57139352
3738,37633555.28570427
2,7, 1, 7, 0,13, 0.00,60.00,Saturday
135,96893047.92140898
3420,96893047.92140898
3738,24898019.00130323
2,7, 1, 7, 0,14, 0.00,60.00,Saturday
135,86585460.3412916
3420,86585460.3412916
3738,26673041.87864311
2,7, 1, 7, 0,15, 0.00,60.00,Saturday
135,80777988.06353001
3420,80777988.06353001
3738,24306701.850922458
2,7, 1, 7, 0,16, 0.00,60.00,Saturday
135,76387356.62475252
3420,76387356.62475252
3738,32412560.86847259
2,7, 1, 7, 0,17, 0.00,60.00,Saturday
135,79589668.3213767
3420,79589668.32137671
3738,41521374.37097205
2,7, 1, 7, 0,18, 0.00,60.00,Saturday
135,83077160.33306564
3420,83077160.33306564
3738,55497212.51627463
2,7, 1, 7, 0,19, 0.00,60.00,Saturday
135,66276703.53612528
3420,66276703.53612528
3738,6791184.0
2,7, 1, 7, 0,20, 0.00,60.00,Saturday
135,49290893.81922844
3420,49290893.81922844
3738,6791184.0
2,7, 1, 7, 0,21, 0.00,60.00,Saturday
135,48904615.70955593
3420,48904615.70955593
3738,6791184.0
2,7, 1, 7, 0,22, 0.00,60.00,Saturday
135,48904615.70955593
3420,48904615.70955593
3738,6791184.0
2,7, 1, 7, 0,23, 0.00,60.00,Saturday
135,48904615.70955593
3420,48904615.70955593
3738,6791184.0
2,7, 1, 7, 0,24, 0.00,60.00,Saturday
135,48904615.70955593
3420,48904615.70955593
3738,6791184.0
2,8, 1, 8, 0, 1, 0.00,60.00,Sunday
135,46359235.70955593
3420,46359235.709555924
3738,6791184.0
2,8, 1, 8, 0, 2, 0.00,60.00,Sunday
135,46359235.70955593
3420,46359235.709555924
3738,6791184.0
2,8, 1, 8, 0, 3, 0.00,60.00,Sunday
135,46359235.70955593
3420,46359235.709555924
3738,6791184.0
2,8, 1, 8, 0, 4, 0.00,60.00,Sunday
135,46359235.70955593
3420,46359235.709555924
3738,6791184.0
2,8, 1, 8, 0, 5, 0.00,60.00,Sunday
135,46359235.70955593
3420,46359235.709555924
3738,6791184.0
2,8, 1, 8, 0, 6, 0.00,60.00,Sunday
135,46359235.70955593
3420,46359235.709555924
3738,6791184.0
2,8, 1, 8, 0, 7, 0.00,60.00,Sunday
135,66032185.73006148
3420,66032185.73006148
3738,6791184.0
2,8, 1, 8, 0, 8, 0.00,60.00,Sunday
135,53323580.330645084
3420,53323580.330645084
3738,6791184.0
2,8, 1, 8, 0, 9, 0.00,60.00,Sunday
135,46344166.24829911
3420,46344166.24829911
3738,6791184.0
2,8, 1, 8, 0,10, 0.00,60.00,Sunday
135,46288812.51597283
3420,46288812.51597283
3738,6791184.0
2,8, 1, 8, 0,11, 0.00,60.00,Sunday
135,47246094.30856621
3420,47246094.30856621
3738,6791184.0
2,8, 1, 8, 0,12, 0.00,60.00,Sunday
135,50964701.04335608
3420,50964701.04335608
3738,6791184.0
2,8, 1, 8, 0,13, 0.00,60.00,Sunday
135,53626235.13853078
3420,53626235.13853079
3738,6791184.0
2,8, 1, 8, 0,14, 0.00,60.00,Sunday
135,54307481.77693494
3420,54307481.77693494
3738,6791184.0
2,8, 1, 8, 0,15, 0.00,60.00,Sunday
135,53571985.65497405
3420,53571985.65497405
3738,6791184.0
2,8, 1, 8, 0,16, 0.00,60.00,Sunday
135,54093272.07666884
3420,54093272.07666885
3738,6791184.0
2,8, 1, 8, 0,17, 0.00,60.00,Sunday
135,50079855.840278946
3420,50079855.840278946
3738,6791184.0
2,8, 1, 8, 0,18, 0.00,60.00,Sunday
135,66276671.30593526
3420,66276671.30593526
3738,6791184.0
2,8, 1, 8, 0,19, 0.00,60.00,Sunday
135,57105773.81922845
3420,57105773.81922844
3738,6791184.0
2,8, 1, 8, 0,20, 0.00,60.00,Sunday
135,48904615.70955593
3420,48904615.70955593
3738,6791184.0
2,8, 1, 8, 0,21, 0.00,60.00,Sunday
135,48904615.70955593
3420,48904615.70955593
3738,6791184.0
2,8, 1, 8, 0,22, 0.00,60.00,Sunday
135,48904615.70955593
3420,48904615.70955593
3738,6791184.0
2,8, 1, 8, 0,23, 0.00,60.00,Sunday
135,48904615.70955593
3420,48904615.70955593
3738,6791184.0
2,8, 1, 8, 0,24, 0.00,60.00,Sunday
135,48904615.70955593
3420,48904615.70955593
3738,6791184.0
2,9, 1, 9, 0, 1, 0.00,60.00,Monday
135,57609860.1137362
3420,57609860.1137362
3738,6791184.0
2,9, 1, 9, 0, 2, 0.00,60.00,Monday
135,57609860.1137362
3420,57609860.1137362
3738,6791184.0
2,9, 1, 9, 0, 3, 0.00,60.00,Monday
135,57609860.1137362
3420,57609860.1137362
3738,6791184.0
2,9, 1, 9, 0, 4, 0.00,60.00,Monday
135,57609860.1137362
3420,57609860.1137362
3738,6791184.0
2,9, 1, 9, 0, 5, 0.00,60.00,Monday
135,57609860.1137362
3420,57609860.1137362
3738,6791184.0
2,9, 1, 9, 0, 6, 0.00,60.00,Monday
135,57609860.1137362
3420,57609860.1137362
3738,6791184.0
2,9, 1, 9, 0, 7, 0.00,60.00,Monday
135,132333439.37910178
3420,132333439.37910178
3738,6791184.0
2,9, 1, 9, 0, 8, 0.00,60.00,Monday
135,223575441.43606576
3420,223575441.43606573
3738,138747049.788137
2,9, 1, 9, 0, 9, 0.00,60.00,Monday
135,315041503.9348677
3420,315041503.9348676
3738,84699333.92356166
2,9, 1, 9, 0,10, 0.00,60.00,Monday
135,274142107.7738621
3420,274142107.77386206
3738,59944143.00523349
2,9, 1, 9, 0,11, 0.00,60.00,Monday
135,269106947.8581879
3420,269106947.85818785
3738,24751602.17901644
2,9, 1, 9, 0,12, 0.00,60.00,Monday
135,287239979.9309104
3420,287239979.93091035
3738,20903859.28464594
2,9, 1, 9, 0,13, 0.00,60.00,Monday
135,289984971.2135093
3420,289984971.2135093
3738,31377122.157380693
2,9, 1, 9, 0,14, 0.00,60.00,Monday
135,305776740.3616336
3420,305776740.36163354
3738,26214860.363770176
2,9, 1, 9, 0,15, 0.00,60.00,Monday
135,299522081.9281776
3420,299522081.9281775
3738,20170810.443851944
2,9, 1, 9, 0,16, 0.00,60.00,Monday
135,308069987.98567116
3420,308069987.9856711
3738,15657220.874951936
2,9, 1, 9, 0,17, 0.00,60.00,Monday
135,319088545.8604875
3420,319088545.8604875
3738,25337008.543087285
2,9, 1, 9, 0,18, 0.00,60.00,Monday
135,241658596.56526107
3420,241658596.56526107
3738,13348385.759330813
2,9, 1, 9, 0,19, 0.00,60.00,Monday
135,131778773.73350546
3420,131778773.73350546
3738,35061777.274636164
2,9, 1, 9, 0,20, 0.00,60.00,Monday
135,113894146.69978063
3420,113894146.69978063
3738,44704341.86383963
2,9, 1, 9, 0,21, 0.00,60.00,Monday
135,104843378.82051016
3420,104843378.82051016
3738,34444402.172853485
2,9, 1, 9, 0,22, 0.00,60.00,Monday
135,101919399.37362874
3420,101919399.37362875
3738,41764228.72673634
2,9, 1, 9, 0,23, 0.00,60.00,Monday
135,77772390.65670998
3420,77772390.65670998
3738,6791184.0
2,9, 1, 9, 0,24, 0.00,60.00,Monday
135,72442274.24247962
3420,72442274.24247962
3738,6791184.0
2,10, 1,10, 0, 1, 0.00,60.00,Tuesday
135,57996196.7332391
3420,57996196.7332391
3738,6791184.0
2,10, 1,10, 0, 2, 0.00,60.00,Tuesday
135,57609860.1137362
3420,57609860.1137362
3738,6791184.0
2,10, 1,10, 0, 3, 0.00,60.00,Tuesday
135,57609860.1137362
3420,57609860.1137362
3738,6791184.0
2,10, 1,10, 0, 4, 0.00,60.00,Tuesday
135,57609860.1137362
3420,57609860.1137362
3738,6791184.0
2,10, 1,10, 0, 5, 0.00,60.00,Tuesday
135,57609860.1137362
3420,57609860.1137362
3738,6791184.0
2,10, 1,10, 0, 6, 0.00,60.00,Tuesday
135,57609860.1137362
3420,57609860.1137362
3738,6791184.0
2,10, 1,10, 0, 7, 0.00,60.00,Tuesday
135,114434985.50302741
3420,114434985.50302744
3738,6791184.0
2,10, 1,10, 0, 8, 0.00,60.00,Tuesday
135,197449458.00628158
3420,197449458.00628158
3738,152937462.32175136
2,10, 1,10, 0, 9, 0.00,60.00,Tuesday
135,308417463.11644125
3420,308417463.11644125
3738,98254941.97975262
2,10, 1,10, 0,10, 0.00,60.00,Tuesday
135,268635412.80503803
3420,268635412.80503803
3738,76926117.56111316
2,10, 1,10, 0,11, 0.00,60.00,Tuesday
135,260949975.75716943
3420,260949975.75716937
3738,66803115.77458555
2,10, 1,10, 0,12, 0.00,60.00,Tuesday
135,270751919.3144061
3420,270751919.3144061
3738,77686243.24140564
2,10, 1,10, 0,13, 0.00,60.00,Tuesday
135,290743628.59518045
3420,290743628.59518045
3738,59503577.775624715
2,10, 1,10, 0,14, 0.00,60.00,Tuesday
135,286541431.4299396
3420,286541431.42993957
3738,37339360.4072018
2,10, 1,10, 0,15, 0.00,60.00,Tuesday
135,278609659.2718755
3420,278609659.27187544
3738,16069969.356830537
2,10, 1,10, 0,16, 0.00,60.00,Tuesday
135,280935609.7951024
3420,280935609.79510236
3738,17451993.89422445
2,10, 1,10, 0,17, 0.00,60.00,Tuesday
135,292859324.78182817
3420,292859324.7818282
3738,23463009.414125044
2,10, 1,10, 0,18, 0.00,60.00,Tuesday
135,250164978.79828787
3420,250164978.7982878
3738,40720002.93293242
2,10, 1,10, 0,19, 0.00,60.00,Tuesday
135,131090733.72470737
3420,131090733.72470737
3738,82069965.08935185
2,10, 1,10, 0,20, 0.00,60.00,Tuesday
135,114148325.16558126
3420,114148325.16558126
3738,85787043.86676362
2,10, 1,10, 0,21, 0.00,60.00,Tuesday
135,105414749.55259086
3420,105414749.5525909
3738,95178534.58140902
2,10, 1,10, 0,22, 0.00,60.00,Tuesday
135,104565254.63899583
3420,104565254.63899586
3738,107747515.72860555
2,10, 1,10, 0,23, 0.00,60.00,Tuesday
135,77772390.65670998
3420,77772390.65670998
3738,6791184.0
2,10, 1,10, 0,24, 0.00,60.00,Tuesday
135,72442274.24247962
3420,72442274.24247962
3738,6791184.0
2,11, 1,11, 0, 1, 0.00,60.00,Wednesday
135,57996196.7332391
3420,57996196.7332391
3738,6791184.0
2,11, 1,11, 0, 2, 0.00,60.00,Wednesday
135,57609860.1137362
3420,57609860.1137362
3738,6791184.0
2,11, 1,11, 0, 3, 0.00,60.00,Wednesday
135,57609860.1137362
3420,57609860.1137362
3738,6791184.0
2,11, 1,11, 0, 4, 0.00,60.00,Wednesday
135,57609860.1137362
3420,57609860.1137362
3738,6791184.0
2,11, 1,11, 0, 5, 0.00,60.00,Wednesday
135,57609860.1137362
3420,57609860.1137362
3738,6791184.0
2,11, 1,11, 0, 6, 0.00,60.00,Wednesday
135,57609860.1137362
3420,57609860.1137362
3738,6791184.0
2,11, 1,11, 0, 7, 0.00,60.00,Wednesday
135,109547245.28867856
3420,109547245.28867856
3738,6791184.0
2,11, 1,11, 0, 8, 0.00,60.00,Wednesday
135,191318955.69289258
3420,191318955.69289258
3738,95557550.60199547
2,11, 1,11, 0, 9, 0.00,60.00,Wednesday
135,304782246.2163029
3420,304782246.2163029
3738,64899722.25592269
2,11, 1,11, 0,10, 0.00,60.00,Wednesday
135,267261502.289451
3420,267261502.28945097
3738,51317753.52566092
2,11, 1,11, 0,11, 0.00,60.00,Wednesday
135,261054814.11240923
3420,261054814.11240923
3738,23363760.16019343
2,11, 1,11, 0,12, 0.00,60.00,Wednesday
135,269753190.8462105
3420,269753190.8462104
3738,31544934.216100343
2,11, 1,11, 0,13, 0.00,60.00,Wednesday
135,276187370.55667114
3420,276187370.55667114
3738,45678604.65311557
2,11, 1,11, 0,14, 0.00,60.00,Wednesday
135,273644139.752344
3420,273644139.752344
3738,33672326.197330415
2,11, 1,11, 0,15, 0.00,60.00,Wednesday
135,259605041.27611357
3420,259605041.2761135
3738,24317144.191328794
2,11, 1,11, 0,16, 0.00,60.00,Wednesday
135,259935339.48148298
3420,259935339.48148292
3738,31833433.14676851
2,11, 1,11, 0,17, 0.00,60.00,Wednesday
135,277088380.64146256
3420,277088380.6414625
3738,59883082.91817282
2,11, 1,11, 0,18, 0.00,60.00,Wednesday
135,242007052.77042645
3420,242007052.77042648
3738,63186408.38372585
2,11, 1,11, 0,19, 0.00,60.00,Wednesday
135,131895937.48248029
3420,131895937.48248029
3738,93151454.20782974
2,11, 1,11, 0,20, 0.00,60.00,Wednesday
135,114451218.41379416
3420,114451218.41379416
3738,101983509.44565777
2,11, 1,11, 0,21, 0.00,60.00,Wednesday
135,106101227.15880804
3420,106101227.15880807
3738,101451705.95184901
2,11, 1,11, 0,22, 0.00,60.00,Wednesday
135,104561137.74467921
3420,104561137.74467923
3738,111866236.95202586
2,11, 1,11, 0,23, 0.00,60.00,Wednesday
135,77772390.65670998
3420,77772390.65670998
3738,6791184.0
2,11, 1,11, 0,24, 0.00,60.00,Wednesday
135,72442274.24247962
3420,72442274.24247962
3738,6791184.0
2,12, 1,12, 0, 1, 0.00,60.00,Thursday
135,57996196.7332391
3420,57996196.7332391
3738,6791184.0
2,12, 1,12, 0, 2, 0.00,60.00,Thursday
135,57609860.1137362
3420,57609860.1137362
3738,6791184.0
2,12, 1,12, 0, 3, 0.00,60.00,Thursday
135,57609860.1137362
3420,57609860.1137362
3738,6791184.0
2,12, 1,12, 0, 4, 0.00,60.00,Thursday
135,57609860.1137362
3420,57609860.1137362
3738,6791184.0
2,12, 1,12, 0, 5, 0.00,60.00,Thursday
135,57609860.1137362
3420,57609860.1137362
3738,6791184.0
2,12, 1,12, 0, 6, 0.00,60.00,Thursday
135,57609860.1137362
3420,57609860.1137362
3738,6791184.0
2,12, 1,12, 0, 7, 0.00,60.00,Thursday
135,113585902.05924313
3420,113585902.05924314
3738,6791184.0
2,12, 1,12, 0, 8, 0.00,60.00,Thursday
135,196508170.80260172
3420,196508170.8026017
3738,142793157.5324375
2,12, 1,12, 0, 9, 0.00,60.00,Thursday
135,311331603.94146997
3420,311331603.9414699
3738,92709200.24385315
2,12, 1,12, 0,10, 0.00,60.00,Thursday
135,268350194.09562364
3420,268350194.09562364
3738,79884567.78924006
2,12, 1,12, 0,11, 0.00,60.00,Thursday
135,261603867.8806463
3420,261603867.8806463
3738,63848159.37295323
2,12, 1,12, 0,12, 0.00,60.00,Thursday
135,273693917.3891602
3420,273693917.3891602
3738,58507824.2149015
2,12, 1,12, 0,13, 0.00,60.00,Thursday
135,293052660.82653624
3420,293052660.82653624
3738,50799061.00138625
2,12, 1,12, 0,14, 0.00,60.00,Thursday
135,284424535.5272788
3420,284424535.5272788
3738,47061160.35300117
2,12, 1,12, 0,15, 0.00,60.00,Thursday
135,269061486.98242444
3420,269061486.98242444
3738,27440871.163133573
2,12, 1,12, 0,16, 0.00,60.00,Thursday
135,268880503.8217101
3420,268880503.8217101
3738,35576607.429041356
2,12, 1,12, 0,17, 0.00,60.00,Thursday
135,287487285.2784687
3420,287487285.2784687
3738,42575352.395962395
2,12, 1,12, 0,18, 0.00,60.00,Thursday
135,249453241.23050034
3420,249453241.23050034
3738,56384753.96111084
2,12, 1,12, 0,19, 0.00,60.00,Thursday
135,134161539.69518483
3420,134161539.6951848
3738,84534746.89257422
2,12, 1,12, 0,20, 0.00,60.00,Thursday
135,114112207.21195471
3420,114112207.21195471
3738,81743671.75730453
2,12, 1,12, 0,21, 0.00,60.00,Thursday
135,105697682.96856613
3420,105697682.96856615
3738,85349202.09735125
2,12, 1,12, 0,22, 0.00,60.00,Thursday
135,103092082.20808122
3420,103092082.20808122
3738,87823723.92851913
2,12, 1,12, 0,23, 0.00,60.00,Thursday
135,77772390.65670998
3420,77772390.65670998
3738,6791184.0
2,12, 1,12, 0,24, 0.00,60.00,Thursday
135,72442274.24247962
3420,72442274.24247962
3738,6791184.0
2,13, 1,13, 0, 1, 0.00,60.00,Friday
135,57996196.7332391
3420,57996196.7332391
3738,6791184.0