Program Version,EnergyPlus, Version 9.6.0-f420c06a69, YMD=2022.07.05 15:07
1,5,Environment Title[],Latitude[deg],Longitude[deg],Time Zone[],Elevation[m]
2,8,Day of Simulation[],Month[],Day of Month[],DST Indicator[1=yes 0=no],Hour[],StartMinute[],EndMinute[],DayType
3,5,Cumulative Day of Simulation[],Month[],Day of Month[],DST Indicator[1=yes 0=no],DayType  ! When Daily Meters Requested
4,2,Cumulative Days of Simulation[],Month[]  ! When Monthly Meters Requested
5,1,Cumulative Days of Simulation[] ! When Run Period Meters Requested
6,1,Calendar Year of Simulation[] ! When Annual Meters Requested
135,1,Electricity:Facility [J] !Hourly
3420,1,ElectricityNet:Facility [J] !Hourly
3738,1,NaturalGas:Facility [J] !Hourly
End of Data Dictionary
1,RUNPERIOD 1,  35.04,-106.62,  -7.00,1619.00
2,1, 1, 1, 0, 1, 0.00,60.00,Holiday
135,46359074.93593144
3420,46359074.93593143
3738,6791184.0
2,1, 1, 1, 0, 2, 0.00,60.00,Holiday
135,46359235.70955593
3420,46359235.709555924
3738,6791184.0
2,1, 1, 1, 0, 3, 0.00,60.00,Holiday
135,46359235.70955593
3420,46359235.709555924
3738,6791184.0
2,1, 1, 1, 0, 4, 0.00,60.00,Holiday
135,46359235.70955593
3420,46359235.709555924
3738,6791184.0
2,1, 1, 1, 0, 5, 0.00,60.00,Holiday
135,46359235.70955593
3420,46359235.709555924
3738,6791184.0
2,1, 1, 1, 0, 6, 0.00,60.00,Holiday
135,46359235.70955593
3420,46359235.709555924
3738,6791184.0
2,1, 1, 1, 0, 7, 0.00,60.00,Holiday
135,66032185.73006148
3420,66032185.73006148
3738,6791184.0
2,1, 1, 1, 0, 8, 0.00,60.00,Holiday
135,50074623.774579875
3420,50074623.774579875
3738,6791184.0
2,1, 1, 1, 0, 9, 0.00,60.00,Holiday
135,46351708.9331394
3420,46351708.9331394
3738,6791184.0
2,1, 1, 1, 0,10, 0.00,60.00,Holiday
135,46288813.17904917
3420,46288813.179049164
3738,6791184.0
2,1, 1, 1, 0,11, 0.00,60.00,Holiday
135,50009342.363199614
3420,50009342.363199614
3738,6791184.0
2,1, 1, 1, 0,12, 0.00,60.00,Holiday
135,53617732.55272024
3420,53617732.55272024
3738,6791184.0
2,1, 1, 1, 0,13, 0.00,60.00,Holiday
135,53634290.22678877
3420,53634290.22678876
3738,6791184.0
2,1, 1, 1, 0,14, 0.00,60.00,Holiday
135,58165555.4574862
3420,58165555.45748622
3738,6791184.0
2,1, 1, 1, 0,15, 0.00,60.00,Holiday
135,62026144.28259239
3420,62026144.28259239
3738,6791184.0
2,1, 1, 1, 0,16, 0.00,60.00,Holiday
135,62605261.924326405
3420,62605261.924326405
3738,6791184.0
2,1, 1, 1, 0,17, 0.00,60.00,Holiday
135,50224406.74534619
3420,50224406.74534619
3738,6791184.0
2,1, 1, 1, 0,18, 0.00,60.00,Holiday
135,67534969.93162571
3420,67534969.93162571
3738,6791184.0
2,1, 1, 1, 0,19, 0.00,60.00,Holiday
135,57105773.81922845
3420,57105773.81922844
3738,6791184.0
2,1, 1, 1, 0,20, 0.00,60.00,Holiday
135,48904615.70955593
3420,48904615.70955593
3738,6791184.0
2,1, 1, 1, 0,21, 0.00,60.00,Holiday
135,48904615.70955593
3420,48904615.70955593
3738,6791184.0
2,1, 1, 1, 0,22, 0.00,60.00,Holiday
135,48904615.70955593
3420,48904615.70955593
3738,6791184.0
2,1, 1, 1, 0,23, 0.00,60.00,Holiday
135,48904615.70955593
3420,48904615.70955593
3738,6791184.0
2,1, 1, 1, 0,24, 0.00,60.00,Holiday
135,48904615.70955593
3420,48904615.70955593
3738,6791184.0
2,2, 1, 2, 0, 1, 0.00,60.00,Monday
135,57609860.1137362
3420,57609860.1137362
3738,6791184.0
2,2, 1, 2, 0, 2, 0.00,60.00,Monday
135,57609860.1137362
3420,57609860.1137362
3738,6791184.0
2,2, 1, 2, 0, 3, 0.00,60.00,Monday
135,57609860.1137362
3420,57609860.1137362
3738,6791184.0
2,2, 1, 2, 0, 4, 0.00,60.00,Monday
135,57609860.1137362
3420,57609860.1137362
3738,6791184.0
2,2, 1, 2, 0, 5, 0.00,60.00,Monday
135,57609860.1137362
3420,57609860.1137362
3738,6791184.0
2,2, 1, 2, 0, 6, 0.00,60.00,Monday
135,57609860.1137362
3420,57609860.1137362
3738,6791184.0
2,2, 1, 2, 0, 7, 0.00,60.00,Monday
135,137296304.18115827
3420,137296304.18115827
3738,6791184.0
2,2, 1, 2, 0, 8, 0.00,60.00,Monday
135,228091710.0508986
3420,228091710.0508986
3738,147577462.2909266
2,2, 1, 2, 0, 9, 0.00,60.00,Monday
135,310928566.17060184
3420,310928566.17060184
3738,92519461.25435951
2,2, 1, 2, 0,10, 0.00,60.00,Monday
135,270881865.80048376
3420,270881865.8004837
3738,64104549.62432517
2,2, 1, 2, 0,11, 0.00,60.00,Monday
135,266825978.4651965
3420,266825978.46519646
3738,26002213.802575894
2,2, 1, 2, 0,12, 0.00,60.00,Monday
135,286238561.40794075
3420,286238561.40794075
3738,20876803.489152778
2,2, 1, 2, 0,13, 0.00,60.00,Monday
135,288356518.2716734
3420,288356518.2716734
3738,31334359.881758783
2,2, 1, 2, 0,14, 0.00,60.00,Monday
135,302975525.7747885
3420,302975525.7747885
3738,26165959.05339483
2,2, 1, 2, 0,15, 0.00,60.00,Monday
135,294972021.31000483
3420,294972021.3100048
3738,16663111.546087924
2,2, 1, 2, 0,16, 0.00,60.00,Monday
135,299410344.29420304
3420,299410344.29420304
3738,19076358.658423744
2,2, 1, 2, 0,17, 0.00,60.00,Monday
135,298389053.9474881
3420,298389053.94748807
3738,20696594.044879485
2,2, 1, 2, 0,18, 0.00,60.00,Monday
135,237624719.45918894
3420,237624719.45918894
3738,24658594.589504886
2,2, 1, 2, 0,19, 0.00,60.00,Monday
135,131458533.53394982
3420,131458533.5339498
3738,57891981.091293484
2,2, 1, 2, 0,20, 0.00,60.00,Monday
135,116433380.00818448
3420,116433380.00818448
3738,72469446.82990465
2,2, 1, 2, 0,21, 0.00,60.00,Monday
135,107904137.86016025
3420,107904137.86016026
3738,84419336.25488532
2,2, 1, 2, 0,22, 0.00,60.00,Monday
135,105912372.76109348
3420,105912372.7610935
3738,86039928.28257765
2,2, 1, 2, 0,23, 0.00,60.00,Monday
135,77772390.65670998
3420,77772390.65670998
3738,6791184.0
2,2, 1, 2, 0,24, 0.00,60.00,Monday
135,72442274.24247962
3420,72442274.24247962
3738,6791184.0
2,3, 1, 3, 0, 1, 0.00,60.00,Tuesday
135,57996196.7332391
3420,57996196.7332391
3738,6791184.0
2,3, 1, 3, 0, 2, 0.00,60.00,Tuesday
135,57609860.1137362
3420,57609860.1137362
3738,6791184.0
2,3, 1, 3, 0, 3, 0.00,60.00,Tuesday
135,57609860.1137362
3420,57609860.1137362
3738,6791184.0
2,3, 1, 3, 0, 4, 0.00,60.00,Tuesday
135,57609860.1137362
3420,57609860.1137362
3738,6791184.0
2,3, 1, 3, 0, 5, 0.00,60.00,Tuesday
135,57609860.1137362
3420,57609860.1137362
3738,6791184.0
2,3, 1, 3, 0, 6, 0.00,60.00,Tuesday
135,57609860.1137362
3420,57609860.1137362
3738,6791184.0
2,3, 1, 3, 0, 7, 0.00,60.00,Tuesday
135,110312496.9924938
3420,110312496.99249378
3738,6791184.0
2,3, 1, 3, 0, 8, 0.00,60.00,Tuesday
135,189330189.32888275
3420,189330189.32888275
3738,115410667.71668518
2,3, 1, 3, 0, 9, 0.00,60.00,Tuesday
135,312170708.25756276
3420,312170708.2575627
3738,64370866.81379695
2,3, 1, 3, 0,10, 0.00,60.00,Tuesday
135,278117948.73106974
3420,278117948.7310697
3738,23373328.82286864
2,3, 1, 3, 0,11, 0.00,60.00,Tuesday
135,276880849.26118004
3420,276880849.26118004
3738,9144732.936972253
2,3, 1, 3, 0,12, 0.00,60.00,Tuesday
135,290036939.7642607
3420,290036939.7642607
3738,23129388.95006635
2,3, 1, 3, 0,13, 0.00,60.00,Tuesday
135,298111118.8836044
3420,298111118.88360435
3738,31312392.73824528
2,3, 1, 3, 0,14, 0.00,60.00,Tuesday
135,318884630.3680066
3420,318884630.3680066
3738,26174452.74020621
2,3, 1, 3, 0,15, 0.00,60.00,Tuesday
135,313595513.484451
3420,313595513.48445094
3738,20133550.673470102
2,3, 1, 3, 0,16, 0.00,60.00,Tuesday
135,318200504.2304742
3420,318200504.2304742
3738,15641832.025200807
2,3, 1, 3, 0,17, 0.00,60.00,Tuesday
135,319952332.1278146
3420,319952332.1278145
3738,21164535.53233477
2,3, 1, 3, 0,18, 0.00,60.00,Tuesday
135,244668236.232592
3420,244668236.23259196
3738,15032822.217959989
2,3, 1, 3, 0,19, 0.00,60.00,Tuesday
135,132287180.77982801
3420,132287180.77982801
3738,11459710.335530458
2,3, 1, 3, 0,20, 0.00,60.00,Tuesday
135,113569604.38930234
3420,113569604.38930234
3738,18146428.739724606
2,3, 1, 3, 0,21, 0.00,60.00,Tuesday
135,102910895.06207252
3420,102910895.06207252
3738,22658303.74028849
2,3, 1, 3, 0,22, 0.00,60.00,Tuesday
135,98329871.10343888
3420,98329871.1034389
3738,51035817.14626059
2,3, 1, 3, 0,23, 0.00,60.00,Tuesday
135,77772390.65670998
3420,77772390.65670998
3738,6791184.0
2,3, 1, 3, 0,24, 0.00,60.00,Tuesday
135,72442274.24247962
3420,72442274.24247962
3738,6791184.0
2,4, 1, 4, 0, 1, 0.00,60.00,Wednesday
135,57996196.7332391
3420,57996196.7332391
3738,6791184.0
2,4, 1, 4, 0, 2, 0.00,60.00,Wednesday
135,57609860.1137362
3420,57609860.1137362
3738,6791184.0
2,4, 1, 4, 0, 3, 0.00,60.00,Wednesday
135,57609860.1137362
3420,57609860.1137362
3738,6791184.0
2,4, 1, 4, 0, 4, 0.00,60.00,Wednesday
135,57609860.1137362
3420,57609860.1137362
3738,6791184.0
2,4, 1, 4, 0, 5, 0.00,60.00,Wednesday
135,57609860.1137362
3420,57609860.1137362
3738,6791184.0
2,4, 1, 4, 0, 6, 0.00,60.00,Wednesday
135,57609860.1137362
3420,57609860.1137362
3738,6791184.0
2,4, 1, 4, 0, 7, 0.00,60.00,Wednesday
135,96465016.79444689
3420,96465016.79444689
3738,6791184.0
2,4, 1, 4, 0, 8, 0.00,60.00,Wednesday
135,174449057.3275803
3420,174449057.3275803
3738,92960972.85882318
2,4, 1, 4, 0, 9, 0.00,60.00,Wednesday
135,300050167.6443884
3420,300050167.6443884
3738,52918948.52620373
2,4, 1, 4, 0,10, 0.00,60.00,Wednesday
135,265893225.0383597
3420,265893225.0383596
3738,23491809.72499495
2,4, 1, 4, 0,11, 0.00,60.00,Wednesday
135,258575915.23366186
3420,258575915.23366186
3738,12668759.691932205
2,4, 1, 4, 0,12, 0.00,60.00,Wednesday
135,271730379.6979868
3420,271730379.6979867
3738,20883336.455793016
2,4, 1, 4, 0,13, 0.00,60.00,Wednesday
135,290240331.63765466
3420,290240331.63765466
3738,31308997.087477688
2,4, 1, 4, 0,14, 0.00,60.00,Wednesday
135,305846613.77828467
3420,305846613.7782846
3738,26183598.99682351
2,4, 1, 4, 0,15, 0.00,60.00,Wednesday
135,293130408.8490556
3420,293130408.8490556
3738,20149142.117412332
2,4, 1, 4, 0,16, 0.00,60.00,Wednesday
135,288568901.8933329
3420,288568901.8933329
3738,15651235.646163667
2,4, 1, 4, 0,17, 0.00,60.00,Wednesday
135,296487366.232749
3420,296487366.2327489
3738,25316705.343532804
2,4, 1, 4, 0,18, 0.00,60.00,Wednesday
135,230099569.59932625
3420,230099569.59932625
3738,11105108.900382947
2,4, 1, 4, 0,19, 0.00,60.00,Wednesday
135,130684160.93780538
3420,130684160.93780538
3738,11014852.818026617
2,4, 1, 4, 0,20, 0.00,60.00,Wednesday
135,113569604.38930234
3420,113569604.38930234
3738,10918224.18425716
2,4, 1, 4, 0,21, 0.00,60.00,Wednesday
135,102910895.06207252
3420,102910895.06207252
3738,14905922.941006871
2,4, 1, 4, 0,22, 0.00,60.00,Wednesday
135,98267997.61519502
3420,98267997.61519504
3738,24889951.599456042
2,4, 1, 4, 0,23, 0.00,60.00,Wednesday
135,77772390.65670998
3420,77772390.65670998
3738,6791184.0
2,4, 1, 4, 0,24, 0.00,60.00,Wednesday
135,72442274.24247962
3420,72442274.24247962
3738,6791184.0
2,5, 1, 5, 0, 1, 0.00,60.00,Thursday
135,57996196.7332391
3420,57996196.7332391
3738,6791184.0
2,5, 1, 5, 0, 2, 0.00,60.00,Thursday
135,57609860.1137362
3420,57609860.1137362
3738,6791184.0
2,5, 1, 5, 0, 3, 0.00,60.00,Thursday
135,57609860.1137362
3420,57609860.1137362
3738,6791184.0
2,5, 1, 5, 0, 4, 0.00,60.00,Thursday
135,57609860.1137362
3420,57609860.1137362
3738,6791184.0
2,5, 1, 5, 0, 5, 0.00,60.00,Thursday
135,57609860.1137362
3420,57609860.1137362
3738,6791184.0
2,5, 1, 5, 0, 6, 0.00,60.00,Thursday
135,57609860.1137362
3420,57609860.1137362
3738,6791184.0
2,5, 1, 5, 0, 7, 0.00,60.00,Thursday
135,94290155.51494788
3420,94290155.51494788
3738,6791184.0
2,5, 1, 5, 0, 8, 0.00,60.00,Thursday
135,163530169.50339395
3420,163530169.503394
3738,76864853.29886913
2,5, 1, 5, 0, 9, 0.00,60.00,Thursday
135,300557968.4273034
3420,300557968.4273034
3738,38757525.58461156
2,5, 1, 5, 0,10, 0.00,60.00,Thursday
135,269362140.5328121
3420,269362140.5328121
3738,8283673.888027492
2,5, 1, 5, 0,11, 0.00,60.00,Thursday
135,267343127.9824013
3420,267343127.98240125
3738,11332805.45555637
2,5, 1, 5, 0,12, 0.00,60.00,Thursday
135,288143785.2101913
3420,288143785.2101913
3738,20890644.062376108
2,5, 1, 5, 0,13, 0.00,60.00,Thursday
135,296051938.3722396
3420,296051938.37223953
3738,31320969.602930326
2,5, 1, 5, 0,14, 0.00,60.00,Thursday
135,320359464.7603564
3420,320359464.7603564
3738,26187464.083003968
2,5, 1, 5, 0,15, 0.00,60.00,Thursday
135,314239861.5339761
3420,314239861.533976
3738,20204493.0661081
2,5, 1, 5, 0,16, 0.00,60.00,Thursday
135,316816250.0832921
3420,316816250.08329207
3738,15641809.689489089
2,5, 1, 5, 0,17, 0.00,60.00,Thursday
135,312877811.1575875
3420,312877811.15758747
3738,25321968.54406919
2,5, 1, 5, 0,18, 0.00,60.00,Thursday
135,230145967.95324942
3420,230145967.95324942
3738,11104628.959737338
2,5, 1, 5, 0,19, 0.00,60.00,Thursday
135,130989293.4881269
3420,130989293.4881269
3738,12302714.644488607
2,5, 1, 5, 0,20, 0.00,60.00,Thursday
135,113569604.38930234
3420,113569604.38930234
3738,25030583.59991485
2,5, 1, 5, 0,21, 0.00,60.00,Thursday
135,102910895.06207252
3420,102910895.06207252
3738,37452021.01500256
2,5, 1, 5, 0,22, 0.00,60.00,Thursday
135,98267997.61519502
3420,98267997.61519504
3738,54124338.147551425
2,5, 1, 5, 0,23, 0.00,60.00,Thursday
135,77772390.65670998
3420,77772390.65670998
3738,6791184.0
2,5, 1, 5, 0,24, 0.00,60.00,Thursday
135,72442274.24247962
3420,72442274.24247962
3738,6791184.0
2,6, 1, 6, 0, 1, 0.00,60.00,Friday
135,57996196.7332391
3420,57996196.7332391
3738,6791184.0
2,6, 1, 6, 0, 2, 0.00,60.00,Friday
135,57609860.1137362
3420,57609860.1137362
3738,6791184.0
2,6, 1, 6, 0, 3, 0.00,60.00,Friday
135,57609860.1137362
3420,57609860.1137362
3738,6791184.0
2,6, 1, 6, 0, 4, 0.00,60.00,Friday
135,57609860.1137362
3420,57609860.1137362
3738,6791184.0
2,6, 1, 6, 0, 5, 0.00,60.00,Friday
135,57609860.1137362
3420,57609860.1137362
3738,6791184.0
2,6, 1, 6, 0, 6, 0.00,60.00,Friday
135,57609860.1137362
3420,57609860.1137362
3738,6791184.0
2,6, 1, 6, 0, 7, 0.00,60.00,Friday
135,99938795.4862006
3420,99938795.4862006
3738,6791184.0
2,6, 1, 6, 0, 8, 0.00,60.00,Friday
135,183449874.20648903
3420,183449874.2064891
3738,122831117.28922144
2,6, 1, 6, 0, 9, 0.00,60.00,Friday
135,311530287.12883854
3420,311530287.1288385
3738,88787885.7709676
2,6, 1, 6, 0,10, 0.00,60.00,Friday
135,270590448.3132477
3420,270590448.3132477
3738,81376961.86298284
2,6, 1, 6, 0,11, 0.00,60.00,Friday
135,263456385.8578911
3420,263456385.85789108
3738,70257201.608105
2,6, 1, 6, 0,12, 0.00,60.00,Friday
135,282245468.03365517
3420,282245468.03365517
3738,45271321.54382989
2,6, 1, 6, 0,13, 0.00,60.00,Friday
135,291843795.78451383
3420,291843795.7845138
3738,28199918.84077369
2,6, 1, 6, 0,14, 0.00,60.00,Friday
135,302912024.3680733
3420,302912024.3680732
3738,27260130.302964788
2,6, 1, 6, 0,15, 0.00,60.00,Friday
135,291732715.246293
3420,291732715.2462929
3738,19190756.23305471
2,6, 1, 6, 0,16, 0.00,60.00,Friday
135,294721536.2508106
3420,294721536.25081056
3738,15649577.379908739
2,6, 1, 6, 0,17, 0.00,60.00,Friday
135,304725857.864393
3420,304725857.86439294
3738,25324569.241603196
2,6, 1, 6, 0,18, 0.00,60.00,Friday
135,251689372.9717203
3420,251689372.9717203
3738,52820940.27248226
2,6, 1, 6, 0,19, 0.00,60.00,Friday
135,131616125.3424238
3420,131616125.3424238
3738,81117104.46188526
2,6, 1, 6, 0,20, 0.00,60.00,Friday
135,113569604.38930234
3420,113569604.38930234
3738,84809752.2669874
2,6, 1, 6, 0,21, 0.00,60.00,Friday
135,103908471.6877204
3420,103908471.6877204
3738,102433770.71484946
2,6, 1, 6, 0,22, 0.00,60.00,Friday
135,100762214.51473203
3420,100762214.51473203
3738,101358557.06959695
2,6, 1, 6, 0,23, 0.00,60.00,Friday
135,77772390.65670998
3420,77772390.65670998
3738,6791184.0
2,6, 1, 6, 0,24, 0.00,60.00,Friday
135,72442274.24247962
3420,72442274.24247962
3738,6791184.0
2,7, 1, 7, 0, 1, 0.00,60.00,Saturday
135,46745513.81922844
3420,46745513.81922843
3738,6791184.0
2,7, 1, 7, 0, 2, 0.00,60.00,Saturday
135,46359235.70955593
3420,46359235.709555924
3738,6791184.0
2,7, 1, 7, 0, 3, 0.00,60.00,Saturday
135,46359235.70955593
3420,46359235.709555924
3738,6791184.0
2,7, 1, 7, 0, 4, 0.00,60.00,Saturday
135,46359235.70955593
3420,46359235.709555924
3738,6791184.0
2,7, 1, 7, 0, 5, 0.00,60.00,Saturday
135,46359235.70955593
3420,46359235.709555924
3738,6791184.0
2,7, 1, 7, 0, 6, 0.00,60.00,Saturday
135,46359235.70955593
3420,46359235.709555924
3738,6791184.0
2,7, 1, 7, 0, 7, 0.00,60.00,Saturday
135,111913293.15226908
3420,111913293.15226908
3738,6791184.0
2,7, 1, 7, 0, 8, 0.00,60.00,Saturday
135,140660725.69380978
3420,140660725.69380975
3738,136665926.8534727
2,7, 1, 7, 0, 9, 0.00,60.00,Saturday
135,133783219.96309589
3420,133783219.96309589
3738,118987071.08424987
2,7, 1, 7, 0,10, 0.00,60.00,Saturday
135,135722479.88388014
3420,135722479.88388014
3738,105363033.04788429
2,7, 1, 7, 0,11, 0.00,60.00,Saturday
135,128614379.91275463
3420,128614379.91275463
3738,77320825.46989185
2,7, 1, 7, 0,12, 0.00,60.00,Saturday
135,138259625.20933682
3420,138259625.20933682
3738,36452254.47613522
2,7, 1, 7, 0,13, 0.00,60.00,Saturday
135,97747997.7140033
3420,97747997.7140033
3738,24202085.53092472
2,7, 1, 7, 0,14, 0.00,60.00,Saturday
135,86631023.14821374
3420,86631023.14821374
3738,25264972.121824663
2,7, 1, 7, 0,15, 0.00,60.00,Saturday
135,80777988.06353001
3420,80777988.06353001
3738,22937311.50132609
2,7, 1, 7, 0,16, 0.00,60.00,Saturday
135,76233398.28453368
3420,76233398.28453368
3738,30990424.697672784
2,7, 1, 7, 0,17, 0.00,60.00,Saturday
135,79222478.75802554
3420,79222478.75802556
3738,39814357.68762039
2,7, 1, 7, 0,18, 0.00,60.00,Saturday
135,83077160.33306564
3420,83077160.33306564
3738,55022357.18674581
2,7, 1, 7, 0,19, 0.00,60.00,Saturday
135,66276703.53612528
3420,66276703.53612528
3738,6791184.0
2,7, 1, 7, 0,20, 0.00,60.00,Saturday
135,49290893.81922844
3420,49290893.81922844
3738,6791184.0
2,7, 1, 7, 0,21, 0.00,60.00,Saturday
135,48904615.70955593
3420,48904615.70955593
3738,6791184.0
2,7, 1, 7, 0,22, 0.00,60.00,Saturday
135,48904615.70955593
3420,48904615.70955593
3738,6791184.0
2,7, 1, 7, 0,23, 0.00,60.00,Saturday
135,48904615.70955593
3420,48904615.70955593
3738,6791184.0
2,7, 1, 7, 0,24, 0.00,60.00,Saturday
135,48904615.70955593
3420,48904615.70955593
3738,6791184.0
2,8, 1, 8, 0, 1, 0.00,60.00,Sunday
135,46359235.70955593
3420,46359235.709555924
3738,6791184.0
2,8, 1, 8, 0, 2, 0.00,60.00,Sunday
135,46359235.70955593
3420,46359235.709555924
3738,6791184.0
2,8, 1, 8, 0, 3, 0.00,60.00,Sunday
135,46359235.70955593
3420,46359235.709555924
3738,6791184.0
2,8, 1, 8, 0, 4, 0.00,60.00,Sunday
135,46359235.70955593
3420,46359235.709555924
3738,6791184.0
2,8, 1, 8, 0, 5, 0.00,60.00,Sunday
135,46359235.70955593
3420,46359235.709555924
3738,6791184.0
2,8, 1, 8, 0, 6, 0.00,60.00,Sunday
135,46359235.70955593
3420,46359235.709555924
3738,6791184.0
2,8, 1, 8, 0, 7, 0.00,60.00,Sunday
135,66032185.73006148
3420,66032185.73006148
3738,6791184.0
2,8, 1, 8, 0, 8, 0.00,60.00,Sunday
135,53323580.330645084
3420,53323580.330645084
3738,6791184.0
2,8, 1, 8, 0, 9, 0.00,60.00,Sunday
135,46344166.24829911
3420,46344166.24829911
3738,6791184.0
2,8, 1, 8, 0,10, 0.00,60.00,Sunday
135,46288812.51597283
3420,46288812.51597283
3738,6791184.0
2,8, 1, 8, 0,11, 0.00,60.00,Sunday
135,47482589.84951057
3420,47482589.84951057
3738,6791184.0
2,8, 1, 8, 0,12, 0.00,60.00,Sunday
135,51175922.30349688
3420,51175922.30349688
3738,6791184.0
2,8, 1, 8, 0,13, 0.00,60.00,Sunday
135,54188140.616275534
3420,54188140.61627555
3738,6791184.0
2,8, 1, 8, 0,14, 0.00,60.00,Sunday
135,53711924.28085498
3420,53711924.28085498
3738,6791184.0
2,8, 1, 8, 0,15, 0.00,60.00,Sunday
135,54210155.034977995
3420,54210155.034977995
3738,6791184.0
2,8, 1, 8, 0,16, 0.00,60.00,Sunday
135,53525493.971817225
3420,53525493.97181723
3738,6791184.0
2,8, 1, 8, 0,17, 0.00,60.00,Sunday
135,49371975.328517206
3420,49371975.32851721
3738,6791184.0
2,8, 1, 8, 0,18, 0.00,60.00,Sunday
135,66276671.30593526
3420,66276671.30593526
3738,6791184.0
2,8, 1, 8, 0,19, 0.00,60.00,Sunday
135,57105773.81922845
3420,57105773.81922844
3738,6791184.0
2,8, 1, 8, 0,20, 0.00,60.00,Sunday
135,48904615.70955593
3420,48904615.70955593
3738,6791184.0
2,8, 1, 8, 0,21, 0.00,60.00,Sunday
135,48904615.70955593
3420,48904615.70955593
3738,6791184.0
2,8, 1, 8, 0,22, 0.00,60.00,Sunday
135,48904615.70955593
3420,48904615.70955593
3738,6791184.0
2,8, 1, 8, 0,23, 0.00,60.00,Sunday
135,48904615.70955593
3420,48904615.70955593
3738,6791184.0
2,8, 1, 8, 0,24, 0.00,60.00,Sunday
135,48904615.70955593
3420,48904615.70955593
3738,6791184.0
2,9, 1, 9, 0, 1, 0.00,60.00,Monday
135,57609860.1137362
3420,57609860.1137362
3738,6791184.0
2,9, 1, 9, 0, 2, 0.00,60.00,Monday
135,57609860.1137362
3420,57609860.1137362
3738,6791184.0
2,9, 1, 9, 0, 3, 0.00,60.00,Monday
135,57609860.1137362
3420,57609860.1137362
3738,6791184.0
2,9, 1, 9, 0, 4, 0.00,60.00,Monday
135,57609860.1137362
3420,57609860.1137362
3738,6791184.0
2,9, 1, 9, 0, 5, 0.00,60.00,Monday
135,57609860.1137362
3420,57609860.1137362
3738,6791184.0
2,9, 1, 9, 0, 6, 0.00,60.00,Monday
135,57609860.1137362
3420,57609860.1137362
3738,6791184.0
2,9, 1, 9, 0, 7, 0.00,60.00,Monday
135,129738589.51763198
3420,129738589.51763198
3738,6791184.0
2,9, 1, 9, 0, 8, 0.00,60.00,Monday
135,220228528.7061155
3420,220228528.70611548
3738,138228180.02592218
2,9, 1, 9, 0, 9, 0.00,60.00,Monday
135,314949998.1539251
3420,314949998.1539251
3738,84435849.6736109
2,9, 1, 9, 0,10, 0.00,60.00,Monday
135,274656994.59777987
3420,274656994.5977798
3738,59317458.15681215
2,9, 1, 9, 0,11, 0.00,60.00,Monday
135,269997205.40265316
3420,269997205.40265316
3738,23724113.40523358
2,9, 1, 9, 0,12, 0.00,60.00,Monday
135,287629410.97250724
3420,287629410.9725072
3738,20903862.80052226
2,9, 1, 9, 0,13, 0.00,60.00,Monday
135,290572784.09637326
3420,290572784.09637326
3738,31377146.289838675
2,9, 1, 9, 0,14, 0.00,60.00,Monday
135,306575564.8185636
3420,306575564.8185635
3738,26214859.427245867
2,9, 1, 9, 0,15, 0.00,60.00,Monday
135,300374921.8234885
3420,300374921.8234884
3738,20170805.811417196
2,9, 1, 9, 0,16, 0.00,60.00,Monday
135,309191202.01626056
3420,309191202.01626056
3738,15657206.749597076
2,9, 1, 9, 0,17, 0.00,60.00,Monday
135,320469918.0264954
3420,320469918.02649534
3738,25337015.08168166
2,9, 1, 9, 0,18, 0.00,60.00,Monday
135,242112791.44368005
3420,242112791.44368
3738,13270776.908630777
2,9, 1, 9, 0,19, 0.00,60.00,Monday
135,131821403.28062606
3420,131821403.28062606
3738,34571210.174504526
2,9, 1, 9, 0,20, 0.00,60.00,Monday
135,113726583.22914894
3420,113726583.22914894
3738,44169178.738062136
2,9, 1, 9, 0,21, 0.00,60.00,Monday
135,104366372.01593298
3420,104366372.01593298
3738,33950368.57760872
2,9, 1, 9, 0,22, 0.00,60.00,Monday
135,101395752.00344643
3420,101395752.00344646
3738,40988958.4451273
2,9, 1, 9, 0,23, 0.00,60.00,Monday
135,77772390.65670998
3420,77772390.65670998
3738,6791184.0
2,9, 1, 9, 0,24, 0.00,60.00,Monday
135,72442274.24247962
3420,72442274.24247962
3738,6791184.0
2,10, 1,10, 0, 1, 0.00,60.00,Tuesday
135,57996196.7332391
3420,57996196.7332391
3738,6791184.0
2,10, 1,10, 0, 2, 0.00,60.00,Tuesday
135,57609860.1137362
3420,57609860.1137362
3738,6791184.0
2,10, 1,10, 0, 3, 0.00,60.00,Tuesday
135,57609860.1137362
3420,57609860.1137362
3738,6791184.0
2,10, 1,10, 0, 4, 0.00,60.00,Tuesday
135,57609860.1137362
3420,57609860.1137362
3738,6791184.0
2,10, 1,10, 0, 5, 0.00,60.00,Tuesday
135,57609860.1137362
3420,57609860.1137362
3738,6791184.0
2,10, 1,10, 0, 6, 0.00,60.00,Tuesday
135,57609860.1137362
3420,57609860.1137362
3738,6791184.0
2,10, 1,10, 0, 7, 0.00,60.00,Tuesday
135,113674006.91065148
3420,113674006.91065148
3738,6791184.0
2,10, 1,10, 0, 8, 0.00,60.00,Tuesday
135,196037825.2061395
3420,196037825.20613953
3738,152434838.86324102
2,10, 1,10, 0, 9, 0.00,60.00,Tuesday
135,308595055.641935
3420,308595055.641935
3738,97874635.78129281
2,10, 1,10, 0,10, 0.00,60.00,Tuesday
135,269022905.14009875
3420,269022905.14009875
3738,76752950.84003522
2,10, 1,10, 0,11, 0.00,60.00,Tuesday
135,261392916.1901325
3420,261392916.1901324
3738,66566223.118701756
2,10, 1,10, 0,12, 0.00,60.00,Tuesday
135,271196743.9146515
3420,271196743.9146515
3738,77418659.5080092
2,10, 1,10, 0,13, 0.00,60.00,Tuesday
135,290967030.75390965
3420,290967030.75390965
3738,58734146.93762123
2,10, 1,10, 0,14, 0.00,60.00,Tuesday
135,287088358.9233968
3420,287088358.9233968
3738,36897634.02899578
2,10, 1,10, 0,15, 0.00,60.00,Tuesday
135,279255554.04129916
3420,279255554.04129916
3738,16139059.218549438
2,10, 1,10, 0,16, 0.00,60.00,Tuesday
135,281546429.37683785
3420,281546429.3768378
3738,17374325.590150345
2,10, 1,10, 0,17, 0.00,60.00,Tuesday
135,293431728.9575766
3420,293431728.9575766
3738,23543570.005479246
2,10, 1,10, 0,18, 0.00,60.00,Tuesday
135,250376548.98403406
3420,250376548.98403403
3738,40629248.99485081
2,10, 1,10, 0,19, 0.00,60.00,Tuesday
135,131082685.11389172
3420,131082685.11389172
3738,81752535.93473558
2,10, 1,10, 0,20, 0.00,60.00,Tuesday
135,114046284.60373789
3420,114046284.60373789
3738,85584762.75716215
2,10, 1,10, 0,21, 0.00,60.00,Tuesday
135,105067658.61796184
3420,105067658.61796187
3738,95019132.18801603
2,10, 1,10, 0,22, 0.00,60.00,Tuesday
135,104164349.0605033
3420,104164349.0605033
3738,107641989.80953051
2,10, 1,10, 0,23, 0.00,60.00,Tuesday
135,77772390.65670998
3420,77772390.65670998
3738,6791184.0
2,10, 1,10, 0,24, 0.00,60.00,Tuesday
135,72442274.24247962
3420,72442274.24247962
3738,6791184.0
2,11, 1,11, 0, 1, 0.00,60.00,Wednesday
135,57996196.7332391
3420,57996196.7332391
3738,6791184.0
2,11, 1,11, 0, 2, 0.00,60.00,Wednesday
135,57609860.1137362
3420,57609860.1137362
3738,6791184.0
2,11, 1,11, 0, 3, 0.00,60.00,Wednesday
135,57609860.1137362
3420,57609860.1137362
3738,6791184.0
2,11, 1,11, 0, 4, 0.00,60.00,Wednesday
135,57609860.1137362
3420,57609860.1137362
3738,6791184.0
2,11, 1,11, 0, 5, 0.00,60.00,Wednesday
135,57609860.1137362
3420,57609860.1137362
3738,6791184.0
2,11, 1,11, 0, 6, 0.00,60.00,Wednesday
135,57609860.1137362
3420,57609860.1137362
3738,6791184.0
2,11, 1,11, 0, 7, 0.00,60.00,Wednesday
135,109246775.58209948
3420,109246775.58209948
3738,6791184.0
2,11, 1,11, 0, 8, 0.00,60.00,Wednesday
135,190496354.57399923
3420,190496354.57399923
3738,95119931.17053472
2,11, 1,11, 0, 9, 0.00,60.00,Wednesday
135,304735850.70969564
3420,304735850.70969564
3738,64729096.30644497
2,11, 1,11, 0,10, 0.00,60.00,Wednesday
135,267332286.40330645
3420,267332286.40330645
3738,51073657.25423539
2,11, 1,11, 0,11, 0.00,60.00,Wednesday
135,261214536.13975048
3420,261214536.13975042
3738,23063740.858470414
2,11, 1,11, 0,12, 0.00,60.00,Wednesday
135,269924208.52622986
3420,269924208.5262298
3738,31450049.502828132
2,11, 1,11, 0,13, 0.00,60.00,Wednesday
135,276154102.5465856
3420,276154102.5465856
3738,45402389.39165862
2,11, 1,11, 0,14, 0.00,60.00,Wednesday
135,273757493.714767
3420,273757493.7147669
3738,33394145.500982672
2,11, 1,11, 0,15, 0.00,60.00,Wednesday
135,259699907.30030382
3420,259699907.30030376
3738,24189082.77969759
2,11, 1,11, 0,16, 0.00,60.00,Wednesday
135,260017172.12282017
3420,260017172.12282014
3738,31456897.488828156
2,11, 1,11, 0,17, 0.00,60.00,Wednesday
135,277173826.9321611
3420,277173826.9321611
3738,59699408.16959312
2,11, 1,11, 0,18, 0.00,60.00,Wednesday
135,242044123.9673901
3420,242044123.96739012
3738,63129564.118000895
2,11, 1,11, 0,19, 0.00,60.00,Wednesday
135,131886095.37346181
3420,131886095.37346181
3738,92980426.79728636
2,11, 1,11, 0,20, 0.00,60.00,Wednesday
135,114360377.83477592
3420,114360377.83477592
3738,101886273.62285225
2,11, 1,11, 0,21, 0.00,60.00,Wednesday
135,105922119.49248898
3420,105922119.492489
3738,101375304.84529273
2,11, 1,11, 0,22, 0.00,60.00,Wednesday
135,104281111.08852953
3420,104281111.08852956
3738,111840137.84933391
2,11, 1,11, 0,23, 0.00,60.00,Wednesday
135,77772390.65670998
3420,77772390.65670998
3738,6791184.0
2,11, 1,11, 0,24, 0.00,60.00,Wednesday
135,72442274.24247962
3420,72442274.24247962
3738,6791184.0
2,12, 1,12, 0, 1, 0.00,60.00,Thursday
135,57996196.7332391
3420,57996196.7332391
3738,6791184.0
2,12, 1,12, 0, 2, 0.00,60.00,Thursday
135,57609860.1137362
3420,57609860.1137362
3738,6791184.0
2,12, 1,12, 0, 3, 0.00,60.00,Thursday
135,57609860.1137362
3420,57609860.1137362
3738,6791184.0
2,12, 1,12, 0, 4, 0.00,60.00,Thursday
135,57609860.1137362
3420,57609860.1137362
3738,6791184.0
2,12, 1,12, 0, 5, 0.00,60.00,Thursday
135,57609860.1137362
3420,57609860.1137362
3738,6791184.0
2,12, 1,12, 0, 6, 0.00,60.00,Thursday
135,57609860.1137362
3420,57609860.1137362
3738,6791184.0
2,12, 1,12, 0, 7, 0.00,60.00,Thursday
135,113312271.52517189
3420,113312271.52517188
3738,6791184.0
2,12, 1,12, 0, 8, 0.00,60.00,Thursday
135,195989802.51571903
3420,195989802.51571903
3738,142780926.73853692
2,12, 1,12, 0, 9, 0.00,60.00,Thursday
135,311339656.15443414
3420,311339656.15443414
3738,92678356.28452286
2,12, 1,12, 0,10, 0.00,60.00,Thursday
135,268446092.67771405
3420,268446092.67771405
3738,79874285.8932228
2,12, 1,12, 0,11, 0.00,60.00,Thursday
135,261742413.87167066
3420,261742413.87167066
3738,63787877.87511234
2,12, 1,12, 0,12, 0.00,60.00,Thursday
135,273839967.44436747
3420,273839967.44436747
3738,58375155.32488408
2,12, 1,12, 0,13, 0.00,60.00,Thursday
135,293258722.542843
3420,293258722.542843
3738,50561436.532373875
2,12, 1,12, 0,14, 0.00,60.00,Thursday
135,284577448.29084516
3420,284577448.29084516
3738,46872909.29814323
2,12, 1,12, 0,15, 0.00,60.00,Thursday
135,269189201.9444003
3420,269189201.94440025
3738,27244818.52593571
2,12, 1,12, 0,16, 0.00,60.00,Thursday
135,269005131.3400521
3420,269005131.3400521
3738,35380909.58108717
2,12, 1,12, 0,17, 0.00,60.00,Thursday
135,287610935.2719915
3420,287610935.2719915
3738,42451758.2293127
2,12, 1,12, 0,18, 0.00,60.00,Thursday
135,249554947.35679093
3420,249554947.35679102
3738,56353745.573744014
2,12, 1,12, 0,19, 0.00,60.00,Thursday
135,134027453.38514093
3420,134027453.38514093
3738,84472391.10540439
2,12, 1,12, 0,20, 0.00,60.00,Thursday
135,114068250.54884028
3420,114068250.54884028
3738,81684681.10525362
2,12, 1,12, 0,21, 0.00,60.00,Thursday
135,105615630.03776583
3420,105615630.03776585
3738,85295885.70846371
2,12, 1,12, 0,22, 0.00,60.00,Thursday
135,102985443.52162284
3420,102985443.52162287
3738,87662924.85554457
2,12, 1,12, 0,23, 0.00,60.00,Thursday
135,77772390.65670998
3420,77772390.65670998
3738,6791184.0
2,12, 1,12, 0,24, 0.00,60.00,Thursday
135,72442274.24247962
3420,72442274.24247962
3738,6791184.0
2,13, 1,13, 0, 1, 0.00,60.00,Friday
135,57996196.7332391
3420,57996196.7332391
3738,6791184.0