Program Version,EnergyPlus, Version 9.6.0-f420c06a69, YMD=2022.07.06 16:29
1,5,Environment Title[],Latitude[deg],Longitude[deg],Time Zone[],Elevation[m]
2,8,Day of Simulation[],Month[],Day of Month[],DST Indicator[1=yes 0=no],Hour[],StartMinute[],EndMinute[],DayType
3,5,Cumulative Day of Simulation[],Month[],Day of Month[],DST Indicator[1=yes 0=no],DayType  ! When Daily Meters Requested
4,2,Cumulative Days of Simulation[],Month[]  ! When Monthly Meters Requested
5,1,Cumulative Days of Simulation[] ! When Run Period Meters Requested
6,1,Calendar Year of Simulation[] ! When Annual Meters Requested
135,1,Electricity:Facility [J] !Hourly
3420,1,ElectricityNet:Facility [J] !Hourly
3738,1,NaturalGas:Facility [J] !Hourly
End of Data Dictionary
1,RUNPERIOD 1,  35.04,-106.62,  -7.00,1619.00
2,1, 1, 1, 0, 1, 0.00,60.00,Holiday
135,46359074.93593144
3420,46359074.93593143
3738,6791184.0
2,1, 1, 1, 0, 2, 0.00,60.00,Holiday
135,46359235.70955593
3420,46359235.709555924
3738,6791184.0
2,1, 1, 1, 0, 3, 0.00,60.00,Holiday
135,46359235.70955593
3420,46359235.709555924
3738,6791184.0
2,1, 1, 1, 0, 4, 0.00,60.00,Holiday
135,46359235.70955593
3420,46359235.709555924
3738,6791184.0
2,1, 1, 1, 0, 5, 0.00,60.00,Holiday
135,46359235.70955593
3420,46359235.709555924
3738,6791184.0
2,1, 1, 1, 0, 6, 0.00,60.00,Holiday
135,46359235.70955593
3420,46359235.709555924
3738,6791184.0
2,1, 1, 1, 0, 7, 0.00,60.00,Holiday
135,66032185.73006148
3420,66032185.73006148
3738,6791184.0
2,1, 1, 1, 0, 8, 0.00,60.00,Holiday
135,50074623.774579875
3420,50074623.774579875
3738,6791184.0
2,1, 1, 1, 0, 9, 0.00,60.00,Holiday
135,46351708.9331394
3420,46351708.9331394
3738,6791184.0
2,1, 1, 1, 0,10, 0.00,60.00,Holiday
135,46288813.17904917
3420,46288813.179049164
3738,6791184.0
2,1, 1, 1, 0,11, 0.00,60.00,Holiday
135,50556028.58634514
3420,50556028.58634514
3738,6791184.0
2,1, 1, 1, 0,12, 0.00,60.00,Holiday
135,53620061.07971074
3420,53620061.07971075
3738,6791184.0
2,1, 1, 1, 0,13, 0.00,60.00,Holiday
135,54251377.4482968
3420,54251377.44829681
3738,6791184.0
2,1, 1, 1, 0,14, 0.00,60.00,Holiday
135,58744815.664830714
3420,58744815.66483073
3738,6791184.0
2,1, 1, 1, 0,15, 0.00,60.00,Holiday
135,64652365.25448359
3420,64652365.25448359
3738,6791184.0
2,1, 1, 1, 0,16, 0.00,60.00,Holiday
135,62671968.53224909
3420,62671968.53224909
3738,6791184.0
2,1, 1, 1, 0,17, 0.00,60.00,Holiday
135,54610940.42094375
3420,54610940.42094375
3738,6791184.0
2,1, 1, 1, 0,18, 0.00,60.00,Holiday
135,66905826.86107348
3420,66905826.86107348
3738,6791184.0
2,1, 1, 1, 0,19, 0.00,60.00,Holiday
135,57105773.81922845
3420,57105773.81922844
3738,6791184.0
2,1, 1, 1, 0,20, 0.00,60.00,Holiday
135,48904615.70955593
3420,48904615.70955593
3738,6791184.0
2,1, 1, 1, 0,21, 0.00,60.00,Holiday
135,48904615.70955593
3420,48904615.70955593
3738,6791184.0
2,1, 1, 1, 0,22, 0.00,60.00,Holiday
135,48904615.70955593
3420,48904615.70955593
3738,6791184.0
2,1, 1, 1, 0,23, 0.00,60.00,Holiday
135,48904615.70955593
3420,48904615.70955593
3738,6791184.0
2,1, 1, 1, 0,24, 0.00,60.00,Holiday
135,48904615.70955593
3420,48904615.70955593
3738,6791184.0
2,2, 1, 2, 0, 1, 0.00,60.00,Monday
135,57609860.1137362
3420,57609860.1137362
3738,6791184.0
2,2, 1, 2, 0, 2, 0.00,60.00,Monday
135,57609860.1137362
3420,57609860.1137362
3738,6791184.0
2,2, 1, 2, 0, 3, 0.00,60.00,Monday
135,57609860.1137362
3420,57609860.1137362
3738,6791184.0
2,2, 1, 2, 0, 4, 0.00,60.00,Monday
135,57609860.1137362
3420,57609860.1137362
3738,6791184.0
2,2, 1, 2, 0, 5, 0.00,60.00,Monday
135,57609860.1137362
3420,57609860.1137362
3738,6791184.0
2,2, 1, 2, 0, 6, 0.00,60.00,Monday
135,57609860.1137362
3420,57609860.1137362
3738,6791184.0
2,2, 1, 2, 0, 7, 0.00,60.00,Monday
135,134878218.9732619
3420,134878218.97326186
3738,6791184.0
2,2, 1, 2, 0, 8, 0.00,60.00,Monday
135,224447349.34681612
3420,224447349.34681612
3738,144051788.3317502
2,2, 1, 2, 0, 9, 0.00,60.00,Monday
135,310113173.5226268
3420,310113173.52262676
3738,88876839.65152809
2,2, 1, 2, 0,10, 0.00,60.00,Monday
135,271365063.6523837
3420,271365063.6523836
3738,60265923.85270449
2,2, 1, 2, 0,11, 0.00,60.00,Monday
135,268042805.41555253
3420,268042805.41555253
3738,22324186.92765486
2,2, 1, 2, 0,12, 0.00,60.00,Monday
135,288256589.4717232
3420,288256589.4717232
3738,20876794.54329522
2,2, 1, 2, 0,13, 0.00,60.00,Monday
135,289626908.83261126
3420,289626908.83261126
3738,31334423.78333511
2,2, 1, 2, 0,14, 0.00,60.00,Monday
135,304560312.7598077
3420,304560312.75980777
3738,26165958.14784857
2,2, 1, 2, 0,15, 0.00,60.00,Monday
135,297207055.59561163
3420,297207055.5956117
3738,16649506.089210246
2,2, 1, 2, 0,16, 0.00,60.00,Monday
135,301765850.1485542
3420,301765850.1485542
3738,19089949.697671723
2,2, 1, 2, 0,17, 0.00,60.00,Monday
135,300883689.7626623
3420,300883689.7626623
3738,20696611.81849547
2,2, 1, 2, 0,18, 0.00,60.00,Monday
135,237763786.45298475
3420,237763786.45298478
3738,22828722.127478585
2,2, 1, 2, 0,19, 0.00,60.00,Monday
135,131185250.1779861
3420,131185250.1779861
3738,54000351.72755138
2,2, 1, 2, 0,20, 0.00,60.00,Monday
135,115788227.31176195
3420,115788227.31176195
3738,68630236.21559957
2,2, 1, 2, 0,21, 0.00,60.00,Monday
135,107180701.07736793
3420,107180701.07736793
3738,80740475.22169581
2,2, 1, 2, 0,22, 0.00,60.00,Monday
135,104935694.04120313
3420,104935694.04120316
3738,82360406.46165311
2,2, 1, 2, 0,23, 0.00,60.00,Monday
135,77772390.65670998
3420,77772390.65670998
3738,6791184.0
2,2, 1, 2, 0,24, 0.00,60.00,Monday
135,72442274.24247962
3420,72442274.24247962
3738,6791184.0
2,3, 1, 3, 0, 1, 0.00,60.00,Tuesday
135,57996196.7332391
3420,57996196.7332391
3738,6791184.0
2,3, 1, 3, 0, 2, 0.00,60.00,Tuesday
135,57609860.1137362
3420,57609860.1137362
3738,6791184.0
2,3, 1, 3, 0, 3, 0.00,60.00,Tuesday
135,57609860.1137362
3420,57609860.1137362
3738,6791184.0
2,3, 1, 3, 0, 4, 0.00,60.00,Tuesday
135,57609860.1137362
3420,57609860.1137362
3738,6791184.0
2,3, 1, 3, 0, 5, 0.00,60.00,Tuesday
135,57609860.1137362
3420,57609860.1137362
3738,6791184.0
2,3, 1, 3, 0, 6, 0.00,60.00,Tuesday
135,57609860.1137362
3420,57609860.1137362
3738,6791184.0
2,3, 1, 3, 0, 7, 0.00,60.00,Tuesday
135,110246891.9321736
3420,110246891.9321736
3738,6791184.0
2,3, 1, 3, 0, 8, 0.00,60.00,Tuesday
135,189787777.19002396
3420,189787777.19002393
3738,127893569.43827754
2,3, 1, 3, 0, 9, 0.00,60.00,Tuesday
135,311735474.6462774
3420,311735474.64627737
3738,74048611.90492582
2,3, 1, 3, 0,10, 0.00,60.00,Tuesday
135,277285498.1859546
3420,277285498.1859546
3738,33473696.454957783
2,3, 1, 3, 0,11, 0.00,60.00,Tuesday
135,276669119.4453627
3420,276669119.44536257
3738,11005409.7709702
2,3, 1, 3, 0,12, 0.00,60.00,Tuesday
135,294510040.65947235
3420,294510040.65947235
3738,23274910.85150368
2,3, 1, 3, 0,13, 0.00,60.00,Tuesday
135,296008760.87337774
3420,296008760.87337774
3738,31313196.53816751
2,3, 1, 3, 0,14, 0.00,60.00,Tuesday
135,312459596.2197046
3420,312459596.2197046
3738,26179341.570204668
2,3, 1, 3, 0,15, 0.00,60.00,Tuesday
135,300132587.72396576
3420,300132587.72396576
3738,20134709.813017763
2,3, 1, 3, 0,16, 0.00,60.00,Tuesday
135,303905456.6083193
3420,303905456.6083192
3738,15642458.513267582
2,3, 1, 3, 0,17, 0.00,60.00,Tuesday
135,306143708.642809
3420,306143708.6428089
3738,20958292.106283188
2,3, 1, 3, 0,18, 0.00,60.00,Tuesday
135,241887659.15678734
3420,241887659.15678728
3738,17408500.555825397
2,3, 1, 3, 0,19, 0.00,60.00,Tuesday
135,131936317.85543132
3420,131936317.85543132
3738,31714708.765812345
2,3, 1, 3, 0,20, 0.00,60.00,Tuesday
135,113569604.38930234
3420,113569604.38930234
3738,51650092.05562477
2,3, 1, 3, 0,21, 0.00,60.00,Tuesday
135,102910895.06207252
3420,102910895.06207252
3738,60710470.68437332
2,3, 1, 3, 0,22, 0.00,60.00,Tuesday
135,99700727.8095243
3420,99700727.80952433
3738,89792459.07201333
2,3, 1, 3, 0,23, 0.00,60.00,Tuesday
135,77772390.65670998
3420,77772390.65670998
3738,6791184.0
2,3, 1, 3, 0,24, 0.00,60.00,Tuesday
135,72442274.24247962
3420,72442274.24247962
3738,6791184.0
2,4, 1, 4, 0, 1, 0.00,60.00,Wednesday
135,57996196.7332391
3420,57996196.7332391
3738,6791184.0
2,4, 1, 4, 0, 2, 0.00,60.00,Wednesday
135,57609860.1137362
3420,57609860.1137362
3738,6791184.0
2,4, 1, 4, 0, 3, 0.00,60.00,Wednesday
135,57609860.1137362
3420,57609860.1137362
3738,6791184.0
2,4, 1, 4, 0, 4, 0.00,60.00,Wednesday
135,57609860.1137362
3420,57609860.1137362
3738,6791184.0
2,4, 1, 4, 0, 5, 0.00,60.00,Wednesday
135,57609860.1137362
3420,57609860.1137362
3738,6791184.0
2,4, 1, 4, 0, 6, 0.00,60.00,Wednesday
135,57609860.1137362
3420,57609860.1137362
3738,6791184.0
2,4, 1, 4, 0, 7, 0.00,60.00,Wednesday
135,106404852.69745946
3420,106404852.69745946
3738,6791184.0
2,4, 1, 4, 0, 8, 0.00,60.00,Wednesday
135,188565720.77044547
3420,188565720.77044547
3738,148199627.5746022
2,4, 1, 4, 0, 9, 0.00,60.00,Wednesday
135,309354701.0787325
3420,309354701.07873243
3738,87295595.8595211
2,4, 1, 4, 0,10, 0.00,60.00,Wednesday
135,271026351.7007154
3420,271026351.7007154
3738,59254591.49081121
2,4, 1, 4, 0,11, 0.00,60.00,Wednesday
135,265318671.5172772
3420,265318671.51727718
3738,39948447.48624557
2,4, 1, 4, 0,12, 0.00,60.00,Wednesday
135,279645244.1066742
3420,279645244.1066742
3738,25541763.37515947
2,4, 1, 4, 0,13, 0.00,60.00,Wednesday
135,285036500.36897314
3420,285036500.36897314
3738,31353602.7696282
2,4, 1, 4, 0,14, 0.00,60.00,Wednesday
135,290685247.22720414
3420,290685247.2272042
3738,26188331.40128117
2,4, 1, 4, 0,15, 0.00,60.00,Wednesday
135,275869938.016961
3420,275869938.016961
3738,20161876.077216543
2,4, 1, 4, 0,16, 0.00,60.00,Wednesday
135,275561594.01921284
3420,275561594.01921284
3738,15652007.014608864
2,4, 1, 4, 0,17, 0.00,60.00,Wednesday
135,295050112.0482503
3420,295050112.0482503
3738,25318932.60453754
2,4, 1, 4, 0,18, 0.00,60.00,Wednesday
135,250937232.52106398
3420,250937232.521064
3738,18172635.687563766
2,4, 1, 4, 0,19, 0.00,60.00,Wednesday
135,131963474.08535361
3420,131963474.08535364
3738,34092719.66975884
2,4, 1, 4, 0,20, 0.00,60.00,Wednesday
135,113569604.38930234
3420,113569604.38930234
3738,48641009.18389044
2,4, 1, 4, 0,21, 0.00,60.00,Wednesday
135,102910895.06207252
3420,102910895.06207252
3738,62017398.94849987
2,4, 1, 4, 0,22, 0.00,60.00,Wednesday
135,98643202.27409184
3420,98643202.27409185
3738,73472639.48549943
2,4, 1, 4, 0,23, 0.00,60.00,Wednesday
135,77772390.65670998
3420,77772390.65670998
3738,6791184.0
2,4, 1, 4, 0,24, 0.00,60.00,Wednesday
135,72442274.24247962
3420,72442274.24247962
3738,6791184.0
2,5, 1, 5, 0, 1, 0.00,60.00,Thursday
135,57996196.7332391
3420,57996196.7332391
3738,6791184.0
2,5, 1, 5, 0, 2, 0.00,60.00,Thursday
135,57609860.1137362
3420,57609860.1137362
3738,6791184.0
2,5, 1, 5, 0, 3, 0.00,60.00,Thursday
135,57609860.1137362
3420,57609860.1137362
3738,6791184.0
2,5, 1, 5, 0, 4, 0.00,60.00,Thursday
135,57609860.1137362
3420,57609860.1137362
3738,6791184.0
2,5, 1, 5, 0, 5, 0.00,60.00,Thursday
135,57609860.1137362
3420,57609860.1137362
3738,6791184.0
2,5, 1, 5, 0, 6, 0.00,60.00,Thursday
135,57609860.1137362
3420,57609860.1137362
3738,6791184.0
2,5, 1, 5, 0, 7, 0.00,60.00,Thursday
135,99605482.22971714
3420,99605482.22971717
3738,6791184.0
2,5, 1, 5, 0, 8, 0.00,60.00,Thursday
135,176848803.66143382
3420,176848803.66143382
3738,118918519.20036617
2,5, 1, 5, 0, 9, 0.00,60.00,Thursday
135,310410716.45027816
3420,310410716.45027816
3738,63718647.53624899
2,5, 1, 5, 0,10, 0.00,60.00,Thursday
135,279145913.06611407
3420,279145913.06611407
3738,18769758.24929616
2,5, 1, 5, 0,11, 0.00,60.00,Thursday
135,278477659.7647417
3420,278477659.76474166
3738,11332778.247828975
2,5, 1, 5, 0,12, 0.00,60.00,Thursday
135,291018123.9829017
3420,291018123.9829017
3738,20890680.988424744
2,5, 1, 5, 0,13, 0.00,60.00,Thursday
135,291884732.64979345
3420,291884732.6497935
3738,31320938.161408074
2,5, 1, 5, 0,14, 0.00,60.00,Thursday
135,314588481.8216781
3420,314588481.8216781
3738,26189110.105443515
2,5, 1, 5, 0,15, 0.00,60.00,Thursday
135,307964088.8082272
3420,307964088.8082271
3738,20204411.469256587
2,5, 1, 5, 0,16, 0.00,60.00,Thursday
135,311795498.4440459
3420,311795498.44404584
3738,15641762.104225928
2,5, 1, 5, 0,17, 0.00,60.00,Thursday
135,314785696.07502025
3420,314785696.07502025
3738,25321980.125197552
2,5, 1, 5, 0,18, 0.00,60.00,Thursday
135,245034952.2600156
3420,245034952.26001555
3738,11105506.040833417
2,5, 1, 5, 0,19, 0.00,60.00,Thursday
135,132573443.45313579
3420,132573443.45313579
3738,16555481.42229817
2,5, 1, 5, 0,20, 0.00,60.00,Thursday
135,113569604.38930234
3420,113569604.38930234
3738,34414366.35249759
2,5, 1, 5, 0,21, 0.00,60.00,Thursday
135,102910895.06207252
3420,102910895.06207252
3738,46617038.61522231
2,5, 1, 5, 0,22, 0.00,60.00,Thursday
135,98267997.61519502
3420,98267997.61519504
3738,60475483.2077232
2,5, 1, 5, 0,23, 0.00,60.00,Thursday
135,77772390.65670998
3420,77772390.65670998
3738,6791184.0
2,5, 1, 5, 0,24, 0.00,60.00,Thursday
135,72442274.24247962
3420,72442274.24247962
3738,6791184.0
2,6, 1, 6, 0, 1, 0.00,60.00,Friday
135,57996196.7332391
3420,57996196.7332391
3738,6791184.0
2,6, 1, 6, 0, 2, 0.00,60.00,Friday
135,57609860.1137362
3420,57609860.1137362
3738,6791184.0
2,6, 1, 6, 0, 3, 0.00,60.00,Friday
135,57609860.1137362
3420,57609860.1137362
3738,6791184.0
2,6, 1, 6, 0, 4, 0.00,60.00,Friday
135,57609860.1137362
3420,57609860.1137362
3738,6791184.0
2,6, 1, 6, 0, 5, 0.00,60.00,Friday
135,57609860.1137362
3420,57609860.1137362
3738,6791184.0
2,6, 1, 6, 0, 6, 0.00,60.00,Friday
135,57609860.1137362
3420,57609860.1137362
3738,6791184.0
2,6, 1, 6, 0, 7, 0.00,60.00,Friday
135,103332675.77662693
3420,103332675.77662693
3738,6791184.0
2,6, 1, 6, 0, 8, 0.00,60.00,Friday
135,188996787.99626085
3420,188996787.99626082
3738,123669341.24950238
2,6, 1, 6, 0, 9, 0.00,60.00,Friday
135,312823764.835119
3420,312823764.835119
3738,87141638.73130357
2,6, 1, 6, 0,10, 0.00,60.00,Friday
135,269947992.86958563
3420,269947992.8695856
3738,79633206.58854693
2,6, 1, 6, 0,11, 0.00,60.00,Friday
135,262520791.2102518
3420,262520791.2102518
3738,69104251.40758911
2,6, 1, 6, 0,12, 0.00,60.00,Friday
135,280381312.9326463
3420,280381312.9326462
3738,46192133.16639331
2,6, 1, 6, 0,13, 0.00,60.00,Friday
135,289606371.5740332
3420,289606371.57403314
3738,27998984.710618816
2,6, 1, 6, 0,14, 0.00,60.00,Friday
135,306444997.2189667
3420,306444997.2189667
3738,27469936.275585253
2,6, 1, 6, 0,15, 0.00,60.00,Friday
135,299118152.117382
3420,299118152.1173819
3738,18996855.325443245
2,6, 1, 6, 0,16, 0.00,60.00,Friday
135,302264030.94102526
3420,302264030.94102526
3738,15649127.290053267
2,6, 1, 6, 0,17, 0.00,60.00,Friday
135,306127207.26605433
3420,306127207.26605433
3738,25324708.47688319
2,6, 1, 6, 0,18, 0.00,60.00,Friday
135,250900626.98378175
3420,250900626.9837818
3738,53255533.81368241
2,6, 1, 6, 0,19, 0.00,60.00,Friday
135,131514595.19589245
3420,131514595.19589245
3738,81732842.64151257
2,6, 1, 6, 0,20, 0.00,60.00,Friday
135,113618465.56344455
3420,113618465.56344455
3738,85698574.90574442
2,6, 1, 6, 0,21, 0.00,60.00,Friday
135,104762756.62175584
3420,104762756.62175585
3738,103768565.83921607
2,6, 1, 6, 0,22, 0.00,60.00,Friday
135,101538140.11177352
3420,101538140.11177352
3738,103123791.90399295
2,6, 1, 6, 0,23, 0.00,60.00,Friday
135,77772390.65670998
3420,77772390.65670998
3738,6791184.0
2,6, 1, 6, 0,24, 0.00,60.00,Friday
135,72442274.24247962
3420,72442274.24247962
3738,6791184.0
2,7, 1, 7, 0, 1, 0.00,60.00,Saturday
135,46745513.81922844
3420,46745513.81922843
3738,6791184.0
2,7, 1, 7, 0, 2, 0.00,60.00,Saturday
135,46359235.70955593
3420,46359235.709555924
3738,6791184.0
2,7, 1, 7, 0, 3, 0.00,60.00,Saturday
135,46359235.70955593
3420,46359235.709555924
3738,6791184.0
2,7, 1, 7, 0, 4, 0.00,60.00,Saturday
135,46359235.70955593
3420,46359235.709555924
3738,6791184.0
2,7, 1, 7, 0, 5, 0.00,60.00,Saturday
135,46359235.70955593
3420,46359235.709555924
3738,6791184.0
2,7, 1, 7, 0, 6, 0.00,60.00,Saturday
135,46359235.70955593
3420,46359235.709555924
3738,6791184.0
2,7, 1, 7, 0, 7, 0.00,60.00,Saturday
135,114137265.01451932
3420,114137265.01451932
3738,6791184.0
2,7, 1, 7, 0, 8, 0.00,60.00,Saturday
135,144900855.8935851
3420,144900855.89358506
3738,137957428.521999
2,7, 1, 7, 0, 9, 0.00,60.00,Saturday
135,135664201.0381092
3420,135664201.03810918
3738,120519269.80688176
2,7, 1, 7, 0,10, 0.00,60.00,Saturday
135,136537192.540585
3420,136537192.540585
3738,106915090.96885784
2,7, 1, 7, 0,11, 0.00,60.00,Saturday
135,128990929.31447214
3420,128990929.31447212
3738,79010111.49201314
2,7, 1, 7, 0,12, 0.00,60.00,Saturday
135,137713626.68687674
3420,137713626.68687674
3738,37558103.31020124
2,7, 1, 7, 0,13, 0.00,60.00,Saturday
135,96982380.35595292
3420,96982380.35595292
3738,24974247.65506652
2,7, 1, 7, 0,14, 0.00,60.00,Saturday
135,86586030.85015774
3420,86586030.85015775
3738,26845595.46967912
2,7, 1, 7, 0,15, 0.00,60.00,Saturday
135,80777988.06353001
3420,80777988.06353001
3738,24764467.408225365
2,7, 1, 7, 0,16, 0.00,60.00,Saturday
135,76376288.2917454
3420,76376288.2917454
3738,33069354.126369696
2,7, 1, 7, 0,17, 0.00,60.00,Saturday
135,79575051.22185087
3420,79575051.22185087
3738,42600296.32592653
2,7, 1, 7, 0,18, 0.00,60.00,Saturday
135,83077160.33306564
3420,83077160.33306564
3738,57546169.98169215
2,7, 1, 7, 0,19, 0.00,60.00,Saturday
135,66276703.53612528
3420,66276703.53612528
3738,6791184.0
2,7, 1, 7, 0,20, 0.00,60.00,Saturday
135,49290893.81922844
3420,49290893.81922844
3738,6791184.0
2,7, 1, 7, 0,21, 0.00,60.00,Saturday
135,48904615.70955593
3420,48904615.70955593
3738,6791184.0
2,7, 1, 7, 0,22, 0.00,60.00,Saturday
135,48904615.70955593
3420,48904615.70955593
3738,6791184.0
2,7, 1, 7, 0,23, 0.00,60.00,Saturday
135,48904615.70955593
3420,48904615.70955593
3738,6791184.0
2,7, 1, 7, 0,24, 0.00,60.00,Saturday
135,48904615.70955593
3420,48904615.70955593
3738,6791184.0
2,8, 1, 8, 0, 1, 0.00,60.00,Sunday
135,46359235.70955593
3420,46359235.709555924
3738,6791184.0
2,8, 1, 8, 0, 2, 0.00,60.00,Sunday
135,46359235.70955593
3420,46359235.709555924
3738,6791184.0
2,8, 1, 8, 0, 3, 0.00,60.00,Sunday
135,46359235.70955593
3420,46359235.709555924
3738,6791184.0
2,8, 1, 8, 0, 4, 0.00,60.00,Sunday
135,46359235.70955593
3420,46359235.709555924
3738,6791184.0
2,8, 1, 8, 0, 5, 0.00,60.00,Sunday
135,46359235.70955593
3420,46359235.709555924
3738,6791184.0
2,8, 1, 8, 0, 6, 0.00,60.00,Sunday
135,46359235.70955593
3420,46359235.709555924
3738,6791184.0
2,8, 1, 8, 0, 7, 0.00,60.00,Sunday
135,66032185.73006148
3420,66032185.73006148
3738,6791184.0
2,8, 1, 8, 0, 8, 0.00,60.00,Sunday
135,53323580.330645084
3420,53323580.330645084
3738,6791184.0
2,8, 1, 8, 0, 9, 0.00,60.00,Sunday
135,46344166.24829911
3420,46344166.24829911
3738,6791184.0
2,8, 1, 8, 0,10, 0.00,60.00,Sunday
135,46288812.51597283
3420,46288812.51597283
3738,6791184.0
2,8, 1, 8, 0,11, 0.00,60.00,Sunday
135,47243636.57124315
3420,47243636.571243145
3738,6791184.0
2,8, 1, 8, 0,12, 0.00,60.00,Sunday
135,50330861.231366664
3420,50330861.23136666
3738,6791184.0
2,8, 1, 8, 0,13, 0.00,60.00,Sunday
135,53590611.23113488
3420,53590611.23113488
3738,6791184.0
2,8, 1, 8, 0,14, 0.00,60.00,Sunday
135,54312902.96762521
3420,54312902.96762521
3738,6791184.0
2,8, 1, 8, 0,15, 0.00,60.00,Sunday
135,53560666.31764531
3420,53560666.31764531
3738,6791184.0
2,8, 1, 8, 0,16, 0.00,60.00,Sunday
135,54090525.90691678
3420,54090525.90691679
3738,6791184.0
2,8, 1, 8, 0,17, 0.00,60.00,Sunday
135,50707768.738957845
3420,50707768.738957845
3738,6791184.0
2,8, 1, 8, 0,18, 0.00,60.00,Sunday
135,66276671.30593526
3420,66276671.30593526
3738,6791184.0
2,8, 1, 8, 0,19, 0.00,60.00,Sunday
135,57105773.81922845
3420,57105773.81922844
3738,6791184.0
2,8, 1, 8, 0,20, 0.00,60.00,Sunday
135,48904615.70955593
3420,48904615.70955593
3738,6791184.0
2,8, 1, 8, 0,21, 0.00,60.00,Sunday
135,48904615.70955593
3420,48904615.70955593
3738,6791184.0
2,8, 1, 8, 0,22, 0.00,60.00,Sunday
135,48904615.70955593
3420,48904615.70955593
3738,6791184.0
2,8, 1, 8, 0,23, 0.00,60.00,Sunday
135,48904615.70955593
3420,48904615.70955593
3738,6791184.0
2,8, 1, 8, 0,24, 0.00,60.00,Sunday
135,48904615.70955593
3420,48904615.70955593
3738,6791184.0
2,9, 1, 9, 0, 1, 0.00,60.00,Monday
135,57609860.1137362
3420,57609860.1137362
3738,6791184.0
2,9, 1, 9, 0, 2, 0.00,60.00,Monday
135,57609860.1137362
3420,57609860.1137362
3738,6791184.0
2,9, 1, 9, 0, 3, 0.00,60.00,Monday
135,57609860.1137362
3420,57609860.1137362
3738,6791184.0
2,9, 1, 9, 0, 4, 0.00,60.00,Monday
135,57609860.1137362
3420,57609860.1137362
3738,6791184.0
2,9, 1, 9, 0, 5, 0.00,60.00,Monday
135,57609860.1137362
3420,57609860.1137362
3738,6791184.0
2,9, 1, 9, 0, 6, 0.00,60.00,Monday
135,57609860.1137362
3420,57609860.1137362
3738,6791184.0
2,9, 1, 9, 0, 7, 0.00,60.00,Monday
135,135180093.84726098
3420,135180093.84726098
3738,6791184.0
2,9, 1, 9, 0, 8, 0.00,60.00,Monday
135,226572628.9733322
3420,226572628.97333217
3738,143513763.71114418
2,9, 1, 9, 0, 9, 0.00,60.00,Monday
135,315804303.2524583
3420,315804303.2524582
3738,87806804.06488736
2,9, 1, 9, 0,10, 0.00,60.00,Monday
135,274064290.9168007
3420,274064290.9168007
3738,63208532.182524525
2,9, 1, 9, 0,11, 0.00,60.00,Monday
135,268578891.2618569
3420,268578891.26185685
3738,27934422.351520304
2,9, 1, 9, 0,12, 0.00,60.00,Monday
135,286486083.8497191
3420,286486083.84971905
3738,21025669.280327015
2,9, 1, 9, 0,13, 0.00,60.00,Monday
135,289361300.10607445
3420,289361300.10607445
3738,31377122.540742457
2,9, 1, 9, 0,14, 0.00,60.00,Monday
135,305058479.7418324
3420,305058479.7418323
3738,26217038.752082773
2,9, 1, 9, 0,15, 0.00,60.00,Monday
135,298082644.10780394
3420,298082644.1078039
3738,20170856.854653075
2,9, 1, 9, 0,16, 0.00,60.00,Monday
135,306445820.8967714
3420,306445820.8967714
3738,15657116.10536686
2,9, 1, 9, 0,17, 0.00,60.00,Monday
135,317934768.3805557
3420,317934768.3805557
3738,25337057.101914063
2,9, 1, 9, 0,18, 0.00,60.00,Monday
135,241604088.27450252
3420,241604088.27450252
3738,14775405.854295246
2,9, 1, 9, 0,19, 0.00,60.00,Monday
135,131736820.82996178
3420,131736820.82996178
3738,39056864.5864397
2,9, 1, 9, 0,20, 0.00,60.00,Monday
135,114235582.25555632
3420,114235582.25555633
3738,49403188.77431123
2,9, 1, 9, 0,21, 0.00,60.00,Monday
135,105378233.44033271
3420,105378233.44033273
3738,39529552.48121664
2,9, 1, 9, 0,22, 0.00,60.00,Monday
135,102704406.99784257
3420,102704406.99784257
3738,47179114.0863918
2,9, 1, 9, 0,23, 0.00,60.00,Monday
135,77772390.65670998
3420,77772390.65670998
3738,6791184.0
2,9, 1, 9, 0,24, 0.00,60.00,Monday
135,72442274.24247962
3420,72442274.24247962
3738,6791184.0
2,10, 1,10, 0, 1, 0.00,60.00,Tuesday
135,57996196.7332391
3420,57996196.7332391
3738,6791184.0
2,10, 1,10, 0, 2, 0.00,60.00,Tuesday
135,57609860.1137362
3420,57609860.1137362
3738,6791184.0
2,10, 1,10, 0, 3, 0.00,60.00,Tuesday
135,57609860.1137362
3420,57609860.1137362
3738,6791184.0
2,10, 1,10, 0, 4, 0.00,60.00,Tuesday
135,57609860.1137362
3420,57609860.1137362
3738,6791184.0
2,10, 1,10, 0, 5, 0.00,60.00,Tuesday
135,57609860.1137362
3420,57609860.1137362
3738,6791184.0
2,10, 1,10, 0, 6, 0.00,60.00,Tuesday
135,57609860.1137362
3420,57609860.1137362
3738,6791184.0
2,10, 1,10, 0, 7, 0.00,60.00,Tuesday
135,116356743.86684895
3420,116356743.86684895
3738,6791184.0
2,10, 1,10, 0, 8, 0.00,60.00,Tuesday
135,199943690.62556815
3420,199943690.62556818
3738,156038485.08927318
2,10, 1,10, 0, 9, 0.00,60.00,Tuesday
135,308689489.44434625
3420,308689489.44434625
3738,99841226.85911147
2,10, 1,10, 0,10, 0.00,60.00,Tuesday
135,268422497.85605347
3420,268422497.85605347
3738,78275592.05618942
2,10, 1,10, 0,11, 0.00,60.00,Tuesday
135,260643848.21889734
3420,260643848.21889734
3738,67731712.9224103
2,10, 1,10, 0,12, 0.00,60.00,Tuesday
135,270477520.40748185
3420,270477520.40748185
3738,78404123.54651931
2,10, 1,10, 0,13, 0.00,60.00,Tuesday
135,290797046.2991399
3420,290797046.2991399
3738,60827632.588279545
2,10, 1,10, 0,14, 0.00,60.00,Tuesday
135,286179497.8862818
3420,286179497.8862818
3738,37910469.17229089
2,10, 1,10, 0,15, 0.00,60.00,Tuesday
135,278114274.5419825
3420,278114274.5419825
3738,16049177.992582962
2,10, 1,10, 0,16, 0.00,60.00,Tuesday
135,280467084.77281064
3420,280467084.77281064
3738,17475361.43588998
2,10, 1,10, 0,17, 0.00,60.00,Tuesday
135,292404630.50943506
3420,292404630.509435
3738,23438773.1504052
2,10, 1,10, 0,18, 0.00,60.00,Tuesday
135,250247596.18237638
3420,250247596.18237638
3738,41459221.90982026
2,10, 1,10, 0,19, 0.00,60.00,Tuesday
135,131144151.07189101
3420,131144151.07189101
3738,83638473.70220026
2,10, 1,10, 0,20, 0.00,60.00,Tuesday
135,114397792.96120897
3420,114397792.96120897
3738,87662890.60743168
2,10, 1,10, 0,21, 0.00,60.00,Tuesday
135,105941146.27628615
3420,105941146.27628617
3738,97373934.73969428
2,10, 1,10, 0,22, 0.00,60.00,Tuesday
135,105212443.11199649
3420,105212443.1119965
3738,110284351.61016198
2,10, 1,10, 0,23, 0.00,60.00,Tuesday
135,77772390.65670998
3420,77772390.65670998
3738,6791184.0
2,10, 1,10, 0,24, 0.00,60.00,Tuesday
135,72442274.24247962
3420,72442274.24247962
3738,6791184.0
2,11, 1,11, 0, 1, 0.00,60.00,Wednesday
135,57996196.7332391
3420,57996196.7332391
3738,6791184.0
2,11, 1,11, 0, 2, 0.00,60.00,Wednesday
135,57609860.1137362
3420,57609860.1137362
3738,6791184.0
2,11, 1,11, 0, 3, 0.00,60.00,Wednesday
135,57609860.1137362
3420,57609860.1137362
3738,6791184.0
2,11, 1,11, 0, 4, 0.00,60.00,Wednesday
135,57609860.1137362
3420,57609860.1137362
3738,6791184.0
2,11, 1,11, 0, 5, 0.00,60.00,Wednesday
135,57609860.1137362
3420,57609860.1137362
3738,6791184.0
2,11, 1,11, 0, 6, 0.00,60.00,Wednesday
135,57609860.1137362
3420,57609860.1137362
3738,6791184.0
2,11, 1,11, 0, 7, 0.00,60.00,Wednesday
135,111657659.11927715
3420,111657659.11927715
3738,6791184.0
2,11, 1,11, 0, 8, 0.00,60.00,Wednesday
135,192490804.1556628
3420,192490804.1556628
3738,94907065.12841722
2,11, 1,11, 0, 9, 0.00,60.00,Wednesday
135,304908415.2671362
3420,304908415.2671362
3738,64061907.167521104
2,11, 1,11, 0,10, 0.00,60.00,Wednesday
135,267231454.41790485
3420,267231454.4179048
3738,50012156.430978045
2,11, 1,11, 0,11, 0.00,60.00,Wednesday
135,260955356.24053487
3420,260955356.24053484
3738,22076833.228434578
2,11, 1,11, 0,12, 0.00,60.00,Wednesday
135,269662085.9285978
3420,269662085.9285978
3738,30354667.01437308
2,11, 1,11, 0,13, 0.00,60.00,Wednesday
135,275357220.6726415
3420,275357220.6726415
3738,43546819.75765219
2,11, 1,11, 0,14, 0.00,60.00,Wednesday
135,273586644.22693557
3420,273586644.22693557
3738,31856325.938784964
2,11, 1,11, 0,15, 0.00,60.00,Wednesday
135,259557860.64193398
3420,259557860.64193395
3738,23210245.01009648
2,11, 1,11, 0,16, 0.00,60.00,Wednesday
135,259880803.38967144
3420,259880803.38967144
3738,29441954.88929458
2,11, 1,11, 0,17, 0.00,60.00,Wednesday
135,277037066.3876673
3420,277037066.3876673
3738,57515205.63368293
2,11, 1,11, 0,18, 0.00,60.00,Wednesday
135,241922839.37878242
3420,241922839.37878242
3738,60930739.81030908
2,11, 1,11, 0,19, 0.00,60.00,Wednesday
135,131826670.86097133
3420,131826670.86097133
3738,89594083.8585725
2,11, 1,11, 0,20, 0.00,60.00,Wednesday
135,114380674.85408543
3420,114380674.85408542
3738,98495893.62000299
2,11, 1,11, 0,21, 0.00,60.00,Wednesday
135,105969050.45048463
3420,105969050.45048463
3738,97985156.91508791
2,11, 1,11, 0,22, 0.00,60.00,Wednesday
135,104367756.2937563
3420,104367756.29375632
3738,108454345.7289384
2,11, 1,11, 0,23, 0.00,60.00,Wednesday
135,77772390.65670998
3420,77772390.65670998
3738,6791184.0
2,11, 1,11, 0,24, 0.00,60.00,Wednesday
135,72442274.24247962
3420,72442274.24247962
3738,6791184.0
2,12, 1,12, 0, 1, 0.00,60.00,Thursday
135,57996196.7332391
3420,57996196.7332391
3738,6791184.0
2,12, 1,12, 0, 2, 0.00,60.00,Thursday
135,57609860.1137362
3420,57609860.1137362
3738,6791184.0
2,12, 1,12, 0, 3, 0.00,60.00,Thursday
135,57609860.1137362
3420,57609860.1137362
3738,6791184.0
2,12, 1,12, 0, 4, 0.00,60.00,Thursday
135,57609860.1137362
3420,57609860.1137362
3738,6791184.0
2,12, 1,12, 0, 5, 0.00,60.00,Thursday
135,57609860.1137362
3420,57609860.1137362
3738,6791184.0
2,12, 1,12, 0, 6, 0.00,60.00,Thursday
135,57609860.1137362
3420,57609860.1137362
3738,6791184.0
2,12, 1,12, 0, 7, 0.00,60.00,Thursday
135,112911991.35375588
3420,112911991.35375588
3738,6791184.0
2,12, 1,12, 0, 8, 0.00,60.00,Thursday
135,195621424.5722089
3420,195621424.5722089
3738,139074546.95185786
2,12, 1,12, 0, 9, 0.00,60.00,Thursday
135,311116440.4299568
3420,311116440.42995685
3738,90374231.0399021
2,12, 1,12, 0,10, 0.00,60.00,Thursday
135,268552753.1947932
3420,268552753.1947932
3738,77557811.12673132
2,12, 1,12, 0,11, 0.00,60.00,Thursday
135,261917787.205111
3420,261917787.20511097
3738,61522020.967588186
2,12, 1,12, 0,12, 0.00,60.00,Thursday
135,274002722.4683384
3420,274002722.4683384
3738,55955712.813858144
2,12, 1,12, 0,13, 0.00,60.00,Thursday
135,293044265.16529965
3420,293044265.1652996
3738,48311944.60713884
2,12, 1,12, 0,14, 0.00,60.00,Thursday
135,284764772.1081785
3420,284764772.1081785
3738,44225275.652498886
2,12, 1,12, 0,15, 0.00,60.00,Thursday
135,269367280.05310154
3420,269367280.05310154
3738,24898367.36599026
2,12, 1,12, 0,16, 0.00,60.00,Thursday
135,269196596.32899773
3420,269196596.3289977
3738,32950019.844964296
2,12, 1,12, 0,17, 0.00,60.00,Thursday
135,287799556.5153814
3420,287799556.51538134
3738,40016670.00889433
2,12, 1,12, 0,18, 0.00,60.00,Thursday
135,249788013.80222255
3420,249788013.80222255
3738,54052113.0339154
2,12, 1,12, 0,19, 0.00,60.00,Thursday
135,133837811.08002502
3420,133837811.080025
3738,80787036.6359243
2,12, 1,12, 0,20, 0.00,60.00,Thursday
135,113902818.72253014
3420,113902818.72253014
3738,78155681.6754841
2,12, 1,12, 0,21, 0.00,60.00,Thursday
135,105283801.29013549
3420,105283801.29013549
3738,81796195.7975832
2,12, 1,12, 0,22, 0.00,60.00,Thursday
135,102571710.95733313
3420,102571710.95733315
3738,84318703.10330282
2,12, 1,12, 0,23, 0.00,60.00,Thursday
135,77772390.65670998
3420,77772390.65670998
3738,6791184.0
2,12, 1,12, 0,24, 0.00,60.00,Thursday
135,72442274.24247962
3420,72442274.24247962
3738,6791184.0
2,13, 1,13, 0, 1, 0.00,60.00,Friday
135,57996196.7332391
3420,57996196.7332391
3738,6791184.0