Program Version,EnergyPlus, Version 9.6.0-f420c06a69, YMD=2022.07.06 16:25
1,5,Environment Title[],Latitude[deg],Longitude[deg],Time Zone[],Elevation[m]
2,8,Day of Simulation[],Month[],Day of Month[],DST Indicator[1=yes 0=no],Hour[],StartMinute[],EndMinute[],DayType
3,5,Cumulative Day of Simulation[],Month[],Day of Month[],DST Indicator[1=yes 0=no],DayType  ! When Daily Meters Requested
4,2,Cumulative Days of Simulation[],Month[]  ! When Monthly Meters Requested
5,1,Cumulative Days of Simulation[] ! When Run Period Meters Requested
6,1,Calendar Year of Simulation[] ! When Annual Meters Requested
135,1,Electricity:Facility [J] !Hourly
3420,1,ElectricityNet:Facility [J] !Hourly
3738,1,NaturalGas:Facility [J] !Hourly
End of Data Dictionary
1,RUNPERIOD 1,  35.04,-106.62,  -7.00,1619.00
2,1, 1, 1, 0, 1, 0.00,60.00,Holiday
135,46359074.93593144
3420,46359074.93593143
3738,6791184.0
2,1, 1, 1, 0, 2, 0.00,60.00,Holiday
135,46359235.70955593
3420,46359235.709555924
3738,6791184.0
2,1, 1, 1, 0, 3, 0.00,60.00,Holiday
135,46359235.70955593
3420,46359235.709555924
3738,6791184.0
2,1, 1, 1, 0, 4, 0.00,60.00,Holiday
135,46359235.70955593
3420,46359235.709555924
3738,6791184.0
2,1, 1, 1, 0, 5, 0.00,60.00,Holiday
135,46359235.70955593
3420,46359235.709555924
3738,6791184.0
2,1, 1, 1, 0, 6, 0.00,60.00,Holiday
135,46359235.70955593
3420,46359235.709555924
3738,6791184.0
2,1, 1, 1, 0, 7, 0.00,60.00,Holiday
135,66032185.73006148
3420,66032185.73006148
3738,6791184.0
2,1, 1, 1, 0, 8, 0.00,60.00,Holiday
135,50074623.774579875
3420,50074623.774579875
3738,6791184.0
2,1, 1, 1, 0, 9, 0.00,60.00,Holiday
135,46351708.9331394
3420,46351708.9331394
3738,6791184.0
2,1, 1, 1, 0,10, 0.00,60.00,Holiday
135,46288813.17904917
3420,46288813.179049164
3738,6791184.0
2,1, 1, 1, 0,11, 0.00,60.00,Holiday
135,50556028.58634514
3420,50556028.58634514
3738,6791184.0
2,1, 1, 1, 0,12, 0.00,60.00,Holiday
135,53620061.07971074
3420,53620061.07971075
3738,6791184.0
2,1, 1, 1, 0,13, 0.00,60.00,Holiday
135,54251377.4482968
3420,54251377.44829681
3738,6791184.0
2,1, 1, 1, 0,14, 0.00,60.00,Holiday
135,58744815.664830714
3420,58744815.66483073
3738,6791184.0
2,1, 1, 1, 0,15, 0.00,60.00,Holiday
135,64652365.25448359
3420,64652365.25448359
3738,6791184.0
2,1, 1, 1, 0,16, 0.00,60.00,Holiday
135,62671968.53224909
3420,62671968.53224909
3738,6791184.0
2,1, 1, 1, 0,17, 0.00,60.00,Holiday
135,54610940.42094375
3420,54610940.42094375
3738,6791184.0
2,1, 1, 1, 0,18, 0.00,60.00,Holiday
135,66905826.86107348
3420,66905826.86107348
3738,6791184.0
2,1, 1, 1, 0,19, 0.00,60.00,Holiday
135,57105773.81922845
3420,57105773.81922844
3738,6791184.0
2,1, 1, 1, 0,20, 0.00,60.00,Holiday
135,48904615.70955593
3420,48904615.70955593
3738,6791184.0
2,1, 1, 1, 0,21, 0.00,60.00,Holiday
135,48904615.70955593
3420,48904615.70955593
3738,6791184.0
2,1, 1, 1, 0,22, 0.00,60.00,Holiday
135,48904615.70955593
3420,48904615.70955593
3738,6791184.0
2,1, 1, 1, 0,23, 0.00,60.00,Holiday
135,48904615.70955593
3420,48904615.70955593
3738,6791184.0
2,1, 1, 1, 0,24, 0.00,60.00,Holiday
135,48904615.70955593
3420,48904615.70955593
3738,6791184.0
2,2, 1, 2, 0, 1, 0.00,60.00,Monday
135,57609860.1137362
3420,57609860.1137362
3738,6791184.0
2,2, 1, 2, 0, 2, 0.00,60.00,Monday
135,57609860.1137362
3420,57609860.1137362
3738,6791184.0
2,2, 1, 2, 0, 3, 0.00,60.00,Monday
135,57609860.1137362
3420,57609860.1137362
3738,6791184.0
2,2, 1, 2, 0, 4, 0.00,60.00,Monday
135,57609860.1137362
3420,57609860.1137362
3738,6791184.0
2,2, 1, 2, 0, 5, 0.00,60.00,Monday
135,57609860.1137362
3420,57609860.1137362
3738,6791184.0
2,2, 1, 2, 0, 6, 0.00,60.00,Monday
135,57609860.1137362
3420,57609860.1137362
3738,6791184.0
2,2, 1, 2, 0, 7, 0.00,60.00,Monday
135,134878218.9732619
3420,134878218.97326186
3738,6791184.0
2,2, 1, 2, 0, 8, 0.00,60.00,Monday
135,224447349.34681612
3420,224447349.34681612
3738,144051788.3317502
2,2, 1, 2, 0, 9, 0.00,60.00,Monday
135,310113173.5226268
3420,310113173.52262676
3738,88876839.65152809
2,2, 1, 2, 0,10, 0.00,60.00,Monday
135,271365063.6523837
3420,271365063.6523836
3738,60265923.85270449
2,2, 1, 2, 0,11, 0.00,60.00,Monday
135,268042805.41555253
3420,268042805.41555253
3738,22324186.92765486
2,2, 1, 2, 0,12, 0.00,60.00,Monday
135,288256589.4717232
3420,288256589.4717232
3738,20876794.54329522
2,2, 1, 2, 0,13, 0.00,60.00,Monday
135,289626908.83261126
3420,289626908.83261126
3738,31334423.78333511
2,2, 1, 2, 0,14, 0.00,60.00,Monday
135,304560312.7598077
3420,304560312.75980777
3738,26165958.14784857
2,2, 1, 2, 0,15, 0.00,60.00,Monday
135,297207055.59561163
3420,297207055.5956117
3738,16649506.089210246
2,2, 1, 2, 0,16, 0.00,60.00,Monday
135,301765850.1485542
3420,301765850.1485542
3738,19089949.697671723
2,2, 1, 2, 0,17, 0.00,60.00,Monday
135,300883689.7626623
3420,300883689.7626623
3738,20696611.81849547
2,2, 1, 2, 0,18, 0.00,60.00,Monday
135,237763786.45298475
3420,237763786.45298478
3738,22828722.127478585
2,2, 1, 2, 0,19, 0.00,60.00,Monday
135,131185250.1779861
3420,131185250.1779861
3738,54000351.72755138
2,2, 1, 2, 0,20, 0.00,60.00,Monday
135,115788227.31176195
3420,115788227.31176195
3738,68630236.21559957
2,2, 1, 2, 0,21, 0.00,60.00,Monday
135,107180701.07736793
3420,107180701.07736793
3738,80740475.22169581
2,2, 1, 2, 0,22, 0.00,60.00,Monday
135,104935694.04120313
3420,104935694.04120316
3738,82360406.46165311
2,2, 1, 2, 0,23, 0.00,60.00,Monday
135,77772390.65670998
3420,77772390.65670998
3738,6791184.0
2,2, 1, 2, 0,24, 0.00,60.00,Monday
135,72442274.24247962
3420,72442274.24247962
3738,6791184.0
2,3, 1, 3, 0, 1, 0.00,60.00,Tuesday
135,57996196.7332391
3420,57996196.7332391
3738,6791184.0
2,3, 1, 3, 0, 2, 0.00,60.00,Tuesday
135,57609860.1137362
3420,57609860.1137362
3738,6791184.0
2,3, 1, 3, 0, 3, 0.00,60.00,Tuesday
135,57609860.1137362
3420,57609860.1137362
3738,6791184.0
2,3, 1, 3, 0, 4, 0.00,60.00,Tuesday
135,57609860.1137362
3420,57609860.1137362
3738,6791184.0
2,3, 1, 3, 0, 5, 0.00,60.00,Tuesday
135,57609860.1137362
3420,57609860.1137362
3738,6791184.0
2,3, 1, 3, 0, 6, 0.00,60.00,Tuesday
135,57609860.1137362
3420,57609860.1137362
3738,6791184.0
2,3, 1, 3, 0, 7, 0.00,60.00,Tuesday
135,110246891.9321736
3420,110246891.9321736
3738,6791184.0
2,3, 1, 3, 0, 8, 0.00,60.00,Tuesday
135,189787777.19002396
3420,189787777.19002393
3738,127893569.43827754
2,3, 1, 3, 0, 9, 0.00,60.00,Tuesday
135,311735474.6462774
3420,311735474.64627737
3738,74048611.90492582
2,3, 1, 3, 0,10, 0.00,60.00,Tuesday
135,277285498.1859546
3420,277285498.1859546
3738,33473696.454957783
2,3, 1, 3, 0,11, 0.00,60.00,Tuesday
135,276669119.4453627
3420,276669119.44536257
3738,11005409.7709702
2,3, 1, 3, 0,12, 0.00,60.00,Tuesday
135,294510040.65947235
3420,294510040.65947235
3738,23274910.85150368
2,3, 1, 3, 0,13, 0.00,60.00,Tuesday
135,296008760.87337774
3420,296008760.87337774
3738,31313196.53816751
2,3, 1, 3, 0,14, 0.00,60.00,Tuesday
135,312459596.2197046
3420,312459596.2197046
3738,26179341.570204668
2,3, 1, 3, 0,15, 0.00,60.00,Tuesday
135,300132587.72396576
3420,300132587.72396576
3738,20134709.813017763
2,3, 1, 3, 0,16, 0.00,60.00,Tuesday
135,303905456.6083193
3420,303905456.6083192
3738,15642458.513267582
2,3, 1, 3, 0,17, 0.00,60.00,Tuesday
135,306143708.642809
3420,306143708.6428089
3738,20958292.106283188
2,3, 1, 3, 0,18, 0.00,60.00,Tuesday
135,241887659.15678734
3420,241887659.15678728
3738,17408500.555825397
2,3, 1, 3, 0,19, 0.00,60.00,Tuesday
135,131936317.85543132
3420,131936317.85543132
3738,31714708.765812345
2,3, 1, 3, 0,20, 0.00,60.00,Tuesday
135,113569604.38930234
3420,113569604.38930234
3738,51650092.05562477
2,3, 1, 3, 0,21, 0.00,60.00,Tuesday
135,102910895.06207252
3420,102910895.06207252
3738,60710470.68437332
2,3, 1, 3, 0,22, 0.00,60.00,Tuesday
135,99700727.8095243
3420,99700727.80952433
3738,89792459.07201333
2,3, 1, 3, 0,23, 0.00,60.00,Tuesday
135,77772390.65670998
3420,77772390.65670998
3738,6791184.0
2,3, 1, 3, 0,24, 0.00,60.00,Tuesday
135,72442274.24247962
3420,72442274.24247962
3738,6791184.0
2,4, 1, 4, 0, 1, 0.00,60.00,Wednesday
135,57996196.7332391
3420,57996196.7332391
3738,6791184.0
2,4, 1, 4, 0, 2, 0.00,60.00,Wednesday
135,57609860.1137362
3420,57609860.1137362
3738,6791184.0
2,4, 1, 4, 0, 3, 0.00,60.00,Wednesday
135,57609860.1137362
3420,57609860.1137362
3738,6791184.0
2,4, 1, 4, 0, 4, 0.00,60.00,Wednesday
135,57609860.1137362
3420,57609860.1137362
3738,6791184.0
2,4, 1, 4, 0, 5, 0.00,60.00,Wednesday
135,57609860.1137362
3420,57609860.1137362
3738,6791184.0
2,4, 1, 4, 0, 6, 0.00,60.00,Wednesday
135,57609860.1137362
3420,57609860.1137362
3738,6791184.0
2,4, 1, 4, 0, 7, 0.00,60.00,Wednesday
135,106404852.69745946
3420,106404852.69745946
3738,6791184.0
2,4, 1, 4, 0, 8, 0.00,60.00,Wednesday
135,188565720.77044547
3420,188565720.77044547
3738,148199627.5746022
2,4, 1, 4, 0, 9, 0.00,60.00,Wednesday
135,309354701.0787325
3420,309354701.07873243
3738,87295595.8595211
2,4, 1, 4, 0,10, 0.00,60.00,Wednesday
135,271026351.7007154
3420,271026351.7007154
3738,59254591.49081121
2,4, 1, 4, 0,11, 0.00,60.00,Wednesday
135,265318671.5172772
3420,265318671.51727718
3738,39948447.48624557
2,4, 1, 4, 0,12, 0.00,60.00,Wednesday
135,279645244.1066742
3420,279645244.1066742
3738,25541763.37515947
2,4, 1, 4, 0,13, 0.00,60.00,Wednesday
135,285036500.36897314
3420,285036500.36897314
3738,31353602.7696282
2,4, 1, 4, 0,14, 0.00,60.00,Wednesday
135,290685247.22720414
3420,290685247.2272042
3738,26188331.40128117
2,4, 1, 4, 0,15, 0.00,60.00,Wednesday
135,275869938.016961
3420,275869938.016961
3738,20161876.077216543
2,4, 1, 4, 0,16, 0.00,60.00,Wednesday
135,275561594.01921284
3420,275561594.01921284
3738,15652007.014608864
2,4, 1, 4, 0,17, 0.00,60.00,Wednesday
135,295050112.0482503
3420,295050112.0482503
3738,25318932.60453754
2,4, 1, 4, 0,18, 0.00,60.00,Wednesday
135,250937232.52106398
3420,250937232.521064
3738,18172635.687563766
2,4, 1, 4, 0,19, 0.00,60.00,Wednesday
135,131963474.08535361
3420,131963474.08535364
3738,34092719.66975884
2,4, 1, 4, 0,20, 0.00,60.00,Wednesday
135,113569604.38930234
3420,113569604.38930234
3738,48641009.18389044
2,4, 1, 4, 0,21, 0.00,60.00,Wednesday
135,102910895.06207252
3420,102910895.06207252
3738,62017398.94849987
2,4, 1, 4, 0,22, 0.00,60.00,Wednesday
135,98643202.27409184
3420,98643202.27409185
3738,73472639.48549943
2,4, 1, 4, 0,23, 0.00,60.00,Wednesday
135,77772390.65670998
3420,77772390.65670998
3738,6791184.0
2,4, 1, 4, 0,24, 0.00,60.00,Wednesday
135,72442274.24247962
3420,72442274.24247962
3738,6791184.0
2,5, 1, 5, 0, 1, 0.00,60.00,Thursday
135,57996196.7332391
3420,57996196.7332391
3738,6791184.0
2,5, 1, 5, 0, 2, 0.00,60.00,Thursday
135,57609860.1137362
3420,57609860.1137362
3738,6791184.0
2,5, 1, 5, 0, 3, 0.00,60.00,Thursday
135,57609860.1137362
3420,57609860.1137362
3738,6791184.0
2,5, 1, 5, 0, 4, 0.00,60.00,Thursday
135,57609860.1137362
3420,57609860.1137362
3738,6791184.0
2,5, 1, 5, 0, 5, 0.00,60.00,Thursday
135,57609860.1137362
3420,57609860.1137362
3738,6791184.0
2,5, 1, 5, 0, 6, 0.00,60.00,Thursday
135,57609860.1137362
3420,57609860.1137362
3738,6791184.0
2,5, 1, 5, 0, 7, 0.00,60.00,Thursday
135,99605482.22971714
3420,99605482.22971717
3738,6791184.0
2,5, 1, 5, 0, 8, 0.00,60.00,Thursday
135,176848803.66143382
3420,176848803.66143382
3738,118918519.20036617
2,5, 1, 5, 0, 9, 0.00,60.00,Thursday
135,310410716.45027816
3420,310410716.45027816
3738,63718647.53624899
2,5, 1, 5, 0,10, 0.00,60.00,Thursday
135,279145913.06611407
3420,279145913.06611407
3738,18769758.24929616
2,5, 1, 5, 0,11, 0.00,60.00,Thursday
135,278477659.7647417
3420,278477659.76474166
3738,11332778.247828975
2,5, 1, 5, 0,12, 0.00,60.00,Thursday
135,291018123.9829017
3420,291018123.9829017
3738,20890680.988424744
2,5, 1, 5, 0,13, 0.00,60.00,Thursday
135,291884732.64979345
3420,291884732.6497935
3738,31320938.161408074
2,5, 1, 5, 0,14, 0.00,60.00,Thursday
135,314315865.78403974
3420,314315865.78403974
3738,26189110.119079202
2,5, 1, 5, 0,15, 0.00,60.00,Thursday
135,306646541.3962516
3420,306646541.3962515
3738,20204411.49857136
2,5, 1, 5, 0,16, 0.00,60.00,Thursday
135,308525644.2321571
3420,308525644.23215705
3738,15641762.135561332
2,5, 1, 5, 0,17, 0.00,60.00,Thursday
135,310931982.47989035
3420,310931982.47989035
3738,25321980.305341408
2,5, 1, 5, 0,18, 0.00,60.00,Thursday
135,245441491.0816208
3420,245441491.08162075
3738,11703377.72543331
2,5, 1, 5, 0,19, 0.00,60.00,Thursday
135,131877372.6177913
3420,131877372.6177913
3738,32701368.3725074
2,5, 1, 5, 0,20, 0.00,60.00,Thursday
135,113569604.38930234
3420,113569604.38930234
3738,65478889.27472375
2,5, 1, 5, 0,21, 0.00,60.00,Thursday
135,102910895.06207252
3420,102910895.06207252
3738,84328798.56481582
2,5, 1, 5, 0,22, 0.00,60.00,Thursday
135,99213477.68638346
3420,99213477.68638347
3738,103339683.74910043
2,5, 1, 5, 0,23, 0.00,60.00,Thursday
135,77772390.65670998
3420,77772390.65670998
3738,6791184.0
2,5, 1, 5, 0,24, 0.00,60.00,Thursday
135,72442274.24247962
3420,72442274.24247962
3738,6791184.0
2,6, 1, 6, 0, 1, 0.00,60.00,Friday
135,57996196.7332391
3420,57996196.7332391
3738,6791184.0
2,6, 1, 6, 0, 2, 0.00,60.00,Friday
135,57609860.1137362
3420,57609860.1137362
3738,6791184.0
2,6, 1, 6, 0, 3, 0.00,60.00,Friday
135,57609860.1137362
3420,57609860.1137362
3738,6791184.0
2,6, 1, 6, 0, 4, 0.00,60.00,Friday
135,57609860.1137362
3420,57609860.1137362
3738,6791184.0
2,6, 1, 6, 0, 5, 0.00,60.00,Friday
135,57609860.1137362
3420,57609860.1137362
3738,6791184.0
2,6, 1, 6, 0, 6, 0.00,60.00,Friday
135,57609860.1137362
3420,57609860.1137362
3738,6791184.0
2,6, 1, 6, 0, 7, 0.00,60.00,Friday
135,113187127.92060031
3420,113187127.92060031
3738,6791184.0
2,6, 1, 6, 0, 8, 0.00,60.00,Friday
135,205547595.7473008
3420,205547595.7473008
3738,150874301.45637226
2,6, 1, 6, 0, 9, 0.00,60.00,Friday
135,318474391.67276347
3420,318474391.6727635
3738,98395151.3036378
2,6, 1, 6, 0,10, 0.00,60.00,Friday
135,270917842.4213293
3420,270917842.42132926
3738,87089984.41687544
2,6, 1, 6, 0,11, 0.00,60.00,Friday
135,261329275.1319385
3420,261329275.1319384
3738,73767798.61887902
2,6, 1, 6, 0,12, 0.00,60.00,Friday
135,278155740.3440522
3420,278155740.34405214
3738,50230785.09965767
2,6, 1, 6, 0,13, 0.00,60.00,Friday
135,288057276.81762207
3420,288057276.817622
3738,28379229.392065346
2,6, 1, 6, 0,14, 0.00,60.00,Friday
135,303734466.48390454
3420,303734466.4839045
3738,27545179.175211657
2,6, 1, 6, 0,15, 0.00,60.00,Friday
135,295915707.72537744
3420,295915707.7253773
3738,18930749.143206596
2,6, 1, 6, 0,16, 0.00,60.00,Friday
135,297929249.15565145
3420,297929249.15565145
3738,15647855.98093354
2,6, 1, 6, 0,17, 0.00,60.00,Friday
135,301484160.9457011
3420,301484160.945701
3738,27419654.511020526
2,6, 1, 6, 0,18, 0.00,60.00,Friday
135,249642065.96806228
3420,249642065.96806228
3738,64542353.79305154
2,6, 1, 6, 0,19, 0.00,60.00,Friday
135,131326187.87596999
3420,131326187.87597
3738,104898612.29622094
2,6, 1, 6, 0,20, 0.00,60.00,Friday
135,115292438.89391914
3420,115292438.89391913
3738,114168387.6144619
2,6, 1, 6, 0,21, 0.00,60.00,Friday
135,108339931.09594816
3420,108339931.09594816
3738,137727556.37408718
2,6, 1, 6, 0,22, 0.00,60.00,Friday
135,106397718.06630865
3420,106397718.06630868
3738,141428308.29057264
2,6, 1, 6, 0,23, 0.00,60.00,Friday
135,77772390.65670998
3420,77772390.65670998
3738,6791184.0
2,6, 1, 6, 0,24, 0.00,60.00,Friday
135,72442274.24247962
3420,72442274.24247962
3738,6791184.0
2,7, 1, 7, 0, 1, 0.00,60.00,Saturday
135,46745513.81922844
3420,46745513.81922843
3738,6791184.0
2,7, 1, 7, 0, 2, 0.00,60.00,Saturday
135,46359235.70955593
3420,46359235.709555924
3738,6791184.0
2,7, 1, 7, 0, 3, 0.00,60.00,Saturday
135,46359235.70955593
3420,46359235.709555924
3738,6791184.0
2,7, 1, 7, 0, 4, 0.00,60.00,Saturday
135,46359235.70955593
3420,46359235.709555924
3738,6791184.0
2,7, 1, 7, 0, 5, 0.00,60.00,Saturday
135,46359235.70955593
3420,46359235.709555924
3738,6791184.0
2,7, 1, 7, 0, 6, 0.00,60.00,Saturday
135,46359235.70955593
3420,46359235.709555924
3738,6791184.0
2,7, 1, 7, 0, 7, 0.00,60.00,Saturday
135,125103449.9758299
3420,125103449.9758299
3738,6791184.0
2,7, 1, 7, 0, 8, 0.00,60.00,Saturday
135,162271114.8451934
3420,162271114.84519336
3738,155929084.54716575
2,7, 1, 7, 0, 9, 0.00,60.00,Saturday
135,142739275.3826367
3420,142739275.3826367
3738,133588928.14933082
2,7, 1, 7, 0,10, 0.00,60.00,Saturday
135,140419462.33796352
3420,140419462.33796352
3738,115114951.29480365
2,7, 1, 7, 0,11, 0.00,60.00,Saturday
135,130765967.86925319
3420,130765967.86925319
3738,82699996.42044607
2,7, 1, 7, 0,12, 0.00,60.00,Saturday
135,137676944.97512174
3420,137676944.97512177
3738,39646718.43182014
2,7, 1, 7, 0,13, 0.00,60.00,Saturday
135,96851170.72827347
3420,96851170.72827347
3738,24236650.917115584
2,7, 1, 7, 0,14, 0.00,60.00,Saturday
135,86588427.78026566
3420,86588427.78026567
3738,25866085.68576945
2,7, 1, 7, 0,15, 0.00,60.00,Saturday
135,80777988.06353001
3420,80777988.06353001
3738,25177645.80148227
2,7, 1, 7, 0,16, 0.00,60.00,Saturday
135,77120077.95294327
3420,77120077.95294328
3738,36907928.932594225
2,7, 1, 7, 0,17, 0.00,60.00,Saturday
135,81078018.48113412
3420,81078018.48113413
3738,50318516.9087048
2,7, 1, 7, 0,18, 0.00,60.00,Saturday
135,83077160.33306564
3420,83077160.33306564
3738,69466302.80469513
2,7, 1, 7, 0,19, 0.00,60.00,Saturday
135,66276703.53612528
3420,66276703.53612528
3738,6791184.0
2,7, 1, 7, 0,20, 0.00,60.00,Saturday
135,49290893.81922844
3420,49290893.81922844
3738,6791184.0
2,7, 1, 7, 0,21, 0.00,60.00,Saturday
135,48904615.70955593
3420,48904615.70955593
3738,6791184.0
2,7, 1, 7, 0,22, 0.00,60.00,Saturday
135,48904615.70955593
3420,48904615.70955593
3738,6791184.0
2,7, 1, 7, 0,23, 0.00,60.00,Saturday
135,48904615.70955593
3420,48904615.70955593
3738,6791184.0
2,7, 1, 7, 0,24, 0.00,60.00,Saturday
135,48904615.70955593
3420,48904615.70955593
3738,6791184.0
2,8, 1, 8, 0, 1, 0.00,60.00,Sunday
135,46359235.70955593
3420,46359235.709555924
3738,6791184.0
2,8, 1, 8, 0, 2, 0.00,60.00,Sunday
135,46359235.70955593
3420,46359235.709555924
3738,6791184.0
2,8, 1, 8, 0, 3, 0.00,60.00,Sunday
135,46359235.70955593
3420,46359235.709555924
3738,6791184.0
2,8, 1, 8, 0, 4, 0.00,60.00,Sunday
135,46359235.70955593
3420,46359235.709555924
3738,6791184.0
2,8, 1, 8, 0, 5, 0.00,60.00,Sunday
135,46359235.70955593
3420,46359235.709555924
3738,6791184.0
2,8, 1, 8, 0, 6, 0.00,60.00,Sunday
135,46359235.70955593
3420,46359235.709555924
3738,6791184.0
2,8, 1, 8, 0, 7, 0.00,60.00,Sunday
135,66032185.73006148
3420,66032185.73006148
3738,6791184.0
2,8, 1, 8, 0, 8, 0.00,60.00,Sunday
135,53323580.330645084
3420,53323580.330645084
3738,6791184.0
2,8, 1, 8, 0, 9, 0.00,60.00,Sunday
135,46344166.24829911
3420,46344166.24829911
3738,6791184.0
2,8, 1, 8, 0,10, 0.00,60.00,Sunday
135,46288812.51597283
3420,46288812.51597283
3738,6791184.0
2,8, 1, 8, 0,11, 0.00,60.00,Sunday
135,46288812.51597283
3420,46288812.51597283
3738,6791184.0
2,8, 1, 8, 0,12, 0.00,60.00,Sunday
135,49382715.00704535
3420,49382715.00704535
3738,6791184.0
2,8, 1, 8, 0,13, 0.00,60.00,Sunday
135,53878575.683089316
3420,53878575.68308932
3738,6791184.0
2,8, 1, 8, 0,14, 0.00,60.00,Sunday
135,53609891.207248665
3420,53609891.20724869
3738,6791184.0
2,8, 1, 8, 0,15, 0.00,60.00,Sunday
135,54173794.56333285
3420,54173794.56333285
3738,6791184.0
2,8, 1, 8, 0,16, 0.00,60.00,Sunday
135,53410039.16104207
3420,53410039.16104207
3738,6791184.0
2,8, 1, 8, 0,17, 0.00,60.00,Sunday
135,48266667.33729489
3420,48266667.33729489
3738,6791184.0
2,8, 1, 8, 0,18, 0.00,60.00,Sunday
135,66276671.30593526
3420,66276671.30593526
3738,6791184.0
2,8, 1, 8, 0,19, 0.00,60.00,Sunday
135,57105773.81922845
3420,57105773.81922844
3738,6791184.0
2,8, 1, 8, 0,20, 0.00,60.00,Sunday
135,48904615.70955593
3420,48904615.70955593
3738,6791184.0
2,8, 1, 8, 0,21, 0.00,60.00,Sunday
135,48904615.70955593
3420,48904615.70955593
3738,6791184.0
2,8, 1, 8, 0,22, 0.00,60.00,Sunday
135,48904615.70955593
3420,48904615.70955593
3738,6791184.0
2,8, 1, 8, 0,23, 0.00,60.00,Sunday
135,48904615.70955593
3420,48904615.70955593
3738,6791184.0
2,8, 1, 8, 0,24, 0.00,60.00,Sunday
135,48904615.70955593
3420,48904615.70955593
3738,6791184.0
2,9, 1, 9, 0, 1, 0.00,60.00,Monday
135,57609860.1137362
3420,57609860.1137362
3738,6791184.0
2,9, 1, 9, 0, 2, 0.00,60.00,Monday
135,57609860.1137362
3420,57609860.1137362
3738,6791184.0
2,9, 1, 9, 0, 3, 0.00,60.00,Monday
135,57609860.1137362
3420,57609860.1137362
3738,6791184.0
2,9, 1, 9, 0, 4, 0.00,60.00,Monday
135,57609860.1137362
3420,57609860.1137362
3738,6791184.0
2,9, 1, 9, 0, 5, 0.00,60.00,Monday
135,57609860.1137362
3420,57609860.1137362
3738,6791184.0
2,9, 1, 9, 0, 6, 0.00,60.00,Monday
135,57609860.1137362
3420,57609860.1137362
3738,6791184.0
2,9, 1, 9, 0, 7, 0.00,60.00,Monday
135,139285047.3215663
3420,139285047.3215663
3738,6791184.0
2,9, 1, 9, 0, 8, 0.00,60.00,Monday
135,233065200.1709557
3420,233065200.1709557
3738,136231104.63511413
2,9, 1, 9, 0, 9, 0.00,60.00,Monday
135,316471155.89334846
3420,316471155.8933484
3738,83220290.717483
2,9, 1, 9, 0,10, 0.00,60.00,Monday
135,273840400.2567198
3420,273840400.25671977
3738,58814522.8397497
2,9, 1, 9, 0,11, 0.00,60.00,Monday
135,267939992.85229146
3420,267939992.8522914
3738,24400417.79797844
2,9, 1, 9, 0,12, 0.00,60.00,Monday
135,284961615.33605814
3420,284961615.336058
3738,20903849.32094474
2,9, 1, 9, 0,13, 0.00,60.00,Monday
135,283792988.035988
3420,283792988.035988
3738,31377053.495145272
2,9, 1, 9, 0,14, 0.00,60.00,Monday
135,296235473.8297556
3420,296235473.82975566
3738,26217046.75900804
2,9, 1, 9, 0,15, 0.00,60.00,Monday
135,289733390.5662732
3420,289733390.56627315
3738,20170869.75138783
2,9, 1, 9, 0,16, 0.00,60.00,Monday
135,297678871.9015432
3420,297678871.90154314
3738,15657156.619604621
2,9, 1, 9, 0,17, 0.00,60.00,Monday
135,307545411.7461315
3420,307545411.7461314
3738,25337038.445257008
2,9, 1, 9, 0,18, 0.00,60.00,Monday
135,239971614.4159477
3420,239971614.4159477
3738,12795952.238533754
2,9, 1, 9, 0,19, 0.00,60.00,Monday
135,131745521.65647528
3420,131745521.65647528
3738,33060186.941142198
2,9, 1, 9, 0,20, 0.00,60.00,Monday
135,114686514.1536003
3420,114686514.1536003
3738,42412749.51117562
2,9, 1, 9, 0,21, 0.00,60.00,Monday
135,105768880.77725461
3420,105768880.77725466
3738,32117709.456709553
2,9, 1, 9, 0,22, 0.00,60.00,Monday
135,103010911.42530431
3420,103010911.42530432
3738,38965762.377936654
2,9, 1, 9, 0,23, 0.00,60.00,Monday
135,77772390.65670998
3420,77772390.65670998
3738,6791184.0
2,9, 1, 9, 0,24, 0.00,60.00,Monday
135,72442274.24247962
3420,72442274.24247962
3738,6791184.0
2,10, 1,10, 0, 1, 0.00,60.00,Tuesday
135,57996196.7332391
3420,57996196.7332391
3738,6791184.0
2,10, 1,10, 0, 2, 0.00,60.00,Tuesday
135,57609860.1137362
3420,57609860.1137362
3738,6791184.0
2,10, 1,10, 0, 3, 0.00,60.00,Tuesday
135,57609860.1137362
3420,57609860.1137362
3738,6791184.0
2,10, 1,10, 0, 4, 0.00,60.00,Tuesday
135,57609860.1137362
3420,57609860.1137362
3738,6791184.0
2,10, 1,10, 0, 5, 0.00,60.00,Tuesday
135,57609860.1137362
3420,57609860.1137362
3738,6791184.0
2,10, 1,10, 0, 6, 0.00,60.00,Tuesday
135,57609860.1137362
3420,57609860.1137362
3738,6791184.0
2,10, 1,10, 0, 7, 0.00,60.00,Tuesday
135,116034710.28493601
3420,116034710.28493604
3738,6791184.0
2,10, 1,10, 0, 8, 0.00,60.00,Tuesday
135,200134916.44408202
3420,200134916.44408202
3738,149321608.14638224
2,10, 1,10, 0, 9, 0.00,60.00,Tuesday
135,308236517.05792403
3420,308236517.0579241
3738,96310787.76288468
2,10, 1,10, 0,10, 0.00,60.00,Tuesday
135,268143531.24671447
3420,268143531.2467144
3738,75546425.01982108
2,10, 1,10, 0,11, 0.00,60.00,Tuesday
135,260418109.1365692
3420,260418109.13656914
3738,64978038.41733703
2,10, 1,10, 0,12, 0.00,60.00,Tuesday
135,270197948.0154394
3420,270197948.0154394
3738,75847240.71137601
2,10, 1,10, 0,13, 0.00,60.00,Tuesday
135,289969614.44728136
3420,289969614.44728136
3738,58771192.20504187
2,10, 1,10, 0,14, 0.00,60.00,Tuesday
135,285807748.67839
3420,285807748.67839
3738,36826769.2077012
2,10, 1,10, 0,15, 0.00,60.00,Tuesday
135,277505500.8184563
3420,277505500.81845623
3738,15928588.407211833
2,10, 1,10, 0,16, 0.00,60.00,Tuesday
135,279737066.2235977
3420,279737066.22359765
3738,17610885.05832568
2,10, 1,10, 0,17, 0.00,60.00,Tuesday
135,291636559.73404384
3420,291636559.7340438
3738,23440760.83689502
2,10, 1,10, 0,18, 0.00,60.00,Tuesday
135,249789126.2945488
3420,249789126.29454878
3738,42564331.12198989
2,10, 1,10, 0,19, 0.00,60.00,Tuesday
135,131203679.7714365
3420,131203679.7714365
3738,86624294.59389403
2,10, 1,10, 0,20, 0.00,60.00,Tuesday
135,114801058.77861741
3420,114801058.77861741
3738,91356116.0229272
2,10, 1,10, 0,21, 0.00,60.00,Tuesday
135,106521042.17571494
3420,106521042.17571498
3738,101915996.3425338
2,10, 1,10, 0,22, 0.00,60.00,Tuesday
135,106051762.74110268
3420,106051762.7411027
3738,116768550.65782768
2,10, 1,10, 0,23, 0.00,60.00,Tuesday
135,77772390.65670998
3420,77772390.65670998
3738,6791184.0
2,10, 1,10, 0,24, 0.00,60.00,Tuesday
135,72442274.24247962
3420,72442274.24247962
3738,6791184.0
2,11, 1,11, 0, 1, 0.00,60.00,Wednesday
135,57996196.7332391
3420,57996196.7332391
3738,6791184.0
2,11, 1,11, 0, 2, 0.00,60.00,Wednesday
135,57609860.1137362
3420,57609860.1137362
3738,6791184.0
2,11, 1,11, 0, 3, 0.00,60.00,Wednesday
135,57609860.1137362
3420,57609860.1137362
3738,6791184.0
2,11, 1,11, 0, 4, 0.00,60.00,Wednesday
135,57609860.1137362
3420,57609860.1137362
3738,6791184.0
2,11, 1,11, 0, 5, 0.00,60.00,Wednesday
135,57609860.1137362
3420,57609860.1137362
3738,6791184.0
2,11, 1,11, 0, 6, 0.00,60.00,Wednesday
135,57609860.1137362
3420,57609860.1137362
3738,6791184.0
2,11, 1,11, 0, 7, 0.00,60.00,Wednesday
135,119234571.71369585
3420,119234571.71369587
3738,6791184.0
2,11, 1,11, 0, 8, 0.00,60.00,Wednesday
135,200625576.34044003
3420,200625576.34044003
3738,118192772.67426163
2,11, 1,11, 0, 9, 0.00,60.00,Wednesday
135,312447377.02633506
3420,312447377.026335
3738,80392949.84896287
2,11, 1,11, 0,10, 0.00,60.00,Wednesday
135,271507495.83887446
3420,271507495.83887446
3738,69391366.68759365
2,11, 1,11, 0,11, 0.00,60.00,Wednesday
135,265266889.5051395
3420,265266889.50513944
3738,44257793.71057529
2,11, 1,11, 0,12, 0.00,60.00,Wednesday
135,277036341.07961905
3420,277036341.079619
3738,49056962.788434625
2,11, 1,11, 0,13, 0.00,60.00,Wednesday
135,290791637.3967747
3420,290791637.3967747
3738,66322532.64152036
2,11, 1,11, 0,14, 0.00,60.00,Wednesday
135,282350075.13095284
3420,282350075.13095284
3738,57319676.14548589
2,11, 1,11, 0,15, 0.00,60.00,Wednesday
135,266947396.0778769
3420,266947396.0778769
3738,48534362.22552809
2,11, 1,11, 0,16, 0.00,60.00,Wednesday
135,265633562.9645709
3420,265633562.96457088
3738,56224076.57141873
2,11, 1,11, 0,17, 0.00,60.00,Wednesday
135,282337083.21659815
3420,282337083.21659815
3738,83805785.69940779
2,11, 1,11, 0,18, 0.00,60.00,Wednesday
135,244533208.03219715
3420,244533208.03219715
3738,85725264.07717198
2,11, 1,11, 0,19, 0.00,60.00,Wednesday
135,136395056.87040967
3420,136395056.87040967
3738,130478231.71296236
2,11, 1,11, 0,20, 0.00,60.00,Wednesday
135,118988929.36761695
3420,118988929.36761698
3738,138948007.2614747
2,11, 1,11, 0,21, 0.00,60.00,Wednesday
135,112650517.05188382
3420,112650517.05188382
3738,139133151.03237036
2,11, 1,11, 0,22, 0.00,60.00,Wednesday
135,112422996.06388412
3420,112422996.06388414
3738,151404112.66135722
2,11, 1,11, 0,23, 0.00,60.00,Wednesday
135,77772390.65670998
3420,77772390.65670998
3738,6791184.0
2,11, 1,11, 0,24, 0.00,60.00,Wednesday
135,72442274.24247962
3420,72442274.24247962
3738,6791184.0
2,12, 1,12, 0, 1, 0.00,60.00,Thursday
135,57996196.7332391
3420,57996196.7332391
3738,6791184.0
2,12, 1,12, 0, 2, 0.00,60.00,Thursday
135,57609860.1137362
3420,57609860.1137362
3738,6791184.0
2,12, 1,12, 0, 3, 0.00,60.00,Thursday
135,57609860.1137362
3420,57609860.1137362
3738,6791184.0
2,12, 1,12, 0, 4, 0.00,60.00,Thursday
135,57609860.1137362
3420,57609860.1137362
3738,6791184.0
2,12, 1,12, 0, 5, 0.00,60.00,Thursday
135,57609860.1137362
3420,57609860.1137362
3738,6791184.0
2,12, 1,12, 0, 6, 0.00,60.00,Thursday
135,57609860.1137362
3420,57609860.1137362
3738,6791184.0
2,12, 1,12, 0, 7, 0.00,60.00,Thursday
135,134918381.66000682
3420,134918381.66000682
3738,6791184.0
2,12, 1,12, 0, 8, 0.00,60.00,Thursday
135,220391773.3894342
3420,220391773.3894342
3738,192830290.53861895
2,12, 1,12, 0, 9, 0.00,60.00,Thursday
135,318192643.7791418
3420,318192643.77914184
3738,136521915.52158672
2,12, 1,12, 0,10, 0.00,60.00,Thursday
135,271051538.40079486
3420,271051538.40079486
3738,132673286.69583723
2,12, 1,12, 0,11, 0.00,60.00,Thursday
135,258347858.15107694
3420,258347858.15107694
3738,110912626.79305583
2,12, 1,12, 0,12, 0.00,60.00,Thursday
135,266829819.07559758
3420,266829819.07559755
3738,98908230.7765126
2,12, 1,12, 0,13, 0.00,60.00,Thursday
135,287158113.8439754
3420,287158113.8439754
3738,91481593.27194896
2,12, 1,12, 0,14, 0.00,60.00,Thursday
135,277942289.53903896
3420,277942289.53903896
3738,91906400.43276186
2,12, 1,12, 0,15, 0.00,60.00,Thursday
135,262076159.13741663
3420,262076159.1374166
3738,70823162.38721292
2,12, 1,12, 0,16, 0.00,60.00,Thursday
135,261735492.42572212
3420,261735492.4257221
3738,80596246.6210979
2,12, 1,12, 0,17, 0.00,60.00,Thursday
135,280144600.9611106
3420,280144600.9611106
3738,88300570.54685777
2,12, 1,12, 0,18, 0.00,60.00,Thursday
135,242936273.29338145
3420,242936273.2933815
3738,98423171.69491093
2,12, 1,12, 0,19, 0.00,60.00,Thursday
135,150147999.3118339
3420,150147999.3118339
3738,151101672.2227273
2,12, 1,12, 0,20, 0.00,60.00,Thursday
135,127169082.69162089
3420,127169082.69162087
3738,146382924.68438554
2,12, 1,12, 0,21, 0.00,60.00,Thursday
135,122223257.97498946
3420,122223257.97498949
3738,149754744.22332826
2,12, 1,12, 0,22, 0.00,60.00,Thursday
135,122194683.13073123
3420,122194683.13073125
3738,155002678.66796246
2,12, 1,12, 0,23, 0.00,60.00,Thursday
135,77772390.65670998
3420,77772390.65670998
3738,6791184.0
2,12, 1,12, 0,24, 0.00,60.00,Thursday
135,72442274.24247962
3420,72442274.24247962
3738,6791184.0
2,13, 1,13, 0, 1, 0.00,60.00,Friday
135,57996196.7332391
3420,57996196.7332391
3738,6791184.0
2,13, 1,13, 0, 2, 0.00,60.00,Friday